/*--------------------------------*- C++ -*----------------------------------*\
  =========                 |
  \\      /  F ield         | OpenFOAM: The Open Source CFD Toolbox
   \\    /   O peration     | Website:  https://openfoam.org
    \\  /    A nd           | Version:  12
     \\/     M anipulation  |
\*---------------------------------------------------------------------------*/
FoamFile
{
    format      ascii;
    class       surfaceScalarField;
    location    "0";
    object      phi;
}
// * * * * * * * * * * * * * * * * * * * * * * * * * * * * * * * * * * * * * //

dimensions      [0 3 -1 0 0 0 0];

internalField   nonuniform List<scalar> 
84340
(
203.868
215600
347.454
217151
606.666
214892
577.645
220159
1110.85
215965
884.693
214484
769.288
224509
1724.64
218718
1806.78
215894
1251.08
212295
968.567
230446
2311.05
223133
2886.3
218983
2592.21
213386
1533.41
211989
1172.26
237928
2911.44
229110
3860.55
223347
4038.42
216240
3313.49
213351
1887.93
209410
1375.35
247060
3523.7
236617
4857.15
229381
5429.2
220741
5220.9
216543
4126.58
210493
2167.7
208791
1581.98
257604
4132.82
245767
5875.57
236965
6828.93
226849
7010.72
221045
6410.1
213473
4879.92
210142
2519.66
205895
1784.54
269815
4753.03
256314
6886.03
246193
8254.81
234484
8805.63
227260
8628.2
218148
7636.06
213466
5728.5
206997
2804.09
204978
1990.02
283584
5359.9
268518
7916.27
256806
9664.69
243738
10630.8
235018
10825.1
224458
10260.1
218164
8877.23
210119
6517.87
206371
3165.28
201841
2188.67
299031
5976.7
282261
8922.18
269067
11104.1
254348
12430.7
244390
13050.4
232280
12848
224590
11934.7
214989
10152.2
209829
7397.83
203011
3471.06
200669
2391.72
315821
6572.22
297673
9947.29
282853
12506.4
266576
14270
255099
15237.4
241686
15463
232541
14919.8
221504
13617.6
214719
11437.2
206260
8228.96
202143
3851.21
197312
2587.55
334269
7182.26
314415
10935.1
298304
13940
280303
16060
267410
17474.7
252395
18025.5
242064
17924.8
229507
16987.2
221338
15334.4
211303
12769.7
205718
9134.97
198572
4180.52
195886
2790.55
354223
7769.44
332809
11950.2
315075
15319
295669
17894
281200
19649.8
264671
20649.1
252868
20860.4
239049
20370.1
229453
19092
217987
17079
210762
14087
201930
9995.94
197452
4584.24
192275
2986.66
375746
8379.55
352699
12925
333501
16740.8
312338
19657.4
296622
21884.2
278397
23199
265221
23868.5
249842
23666.5
239096
22851.7
226131
21217.7
217528
18823.9
207103
15454.5
201118
10924.8
193631
4939.09
190536
3193.04
398904
8967.65
374154
13941.1
353417
18103
330644
21479.9
313336
24031.5
293726
25823.7
279002
26790.7
262146
27046.2
249968
26505
235771
25349
225761
23340.8
213907
20601.7
206273
16798.4
197067
11807.4
192193
5365.89
186597
3393.23
423411
9588.13
397236
14917.8
374903
19527.7
350426
23224.6
331686
26256.6
310326
28346.8
294375
29805.9
275848
30329.6
262332
30253.2
246611
29353.7
235480
27835.8
222143
25493.2
213135
22369.6
202327
18189.8
195923
12752.2
188041
5743.99
184460
3606.87
449579
10188.5
421666
15951.5
398012
20893.2
371769
25053
351508
28384.7
328541
30966.5
311007
32704.8
291111
33723.7
276075
33893.9
258908
33464
246380
32182.3
231835
30349.8
221437
27631.6
209204
24168.5
201147
19549.6
191534
13651.3
186200
6191.9
180099
3815.32
477398
10830.9
447746
16948.8
422479
22343.7
394723
26803.5
372894
30620
348216
33472.1
329250
35721.3
307614
36989.2
291364
37665.3
272555
37457.4
258720
36645.3
242683
35036.1
231187
32842
217486
29798.4
208062
25947.8
196844
20955
189970
14605.8
181629
6588.63
177468
4040.54
506982
11456
475479
18019.5
448592
23738.3
419026
28666.1
395892
32757.4
369440
36107.8
348947
38605.9
325704
40393
307880
41295.6
287718
41600.8
272389
40981.1
254938
39848.9
242076
37858.2
227187
35361.8
216389
31940.8
203751
27756.8
195229
22321.8
185153
15504.9
179286
7064.58
172583
4261.53
537994
12133.3
504967
19058
476368
25241.1
444970
30455
420246
35036.8
392267
38627.6
370196
41645.9
345235
43649.7
325978
45087.1
304088
45592.9
287561
45488.2
268496
44525.7
254356
43010.7
238006
40707.6
226128
37848.5
212038
34111.3
202156
29537
190479
23717.7
183075
16483.1
174190
7477.2
169351
4502.5
570859
12796.1
535886
20187
505896
26693.6
472568
32385.9
446242
37222.2
416440
41317.6
393047
44550.8
366300
47086.1
345511
48715.8
322016
49768.6
303927
49833.8
283526
49394.3
267920
48018
250184
46198.4
236971
43513.7
221707
40363.5
210466
36246.7
197376
31326
188333
25111.5
177726
17376.2
171241
7972.33
163839
4740.28
605587
13520.7
568648
21288.2
536867
28278.8
501914
34249.6
473901
39586.1
442250
43896
417251
47656.8
388960
50370.5
366580
52550.6
341364
53768.4
321845
54387.2
299731
54093.1
282944
53238.7
263623
51535.9
249158
49332.2
232461
46349.4
220152
42833.8
205622
38385.3
195225
33134.4
183027
26485.7
175020
18353.8
165521
8403.83
159890
5001.31
642349
14233.7
603275
22496.4
569678
29819
532694
36286.6
503311
41863.8
469715
46687.6
443094
50631.7
412961
53885.3
389240
56215.9
362231
57999.7
341177
58751.2
317463
59023.6
299130
58281.9
278490
57107.8
262588
54989.1
244530
52495.4
230911
49130.1
215214
45304
203470
40549
189862
34887.4
180231
27868.4
169035
19240.6
161843
8916.05
153639
5259.93
680732
15018.8
639927
23681.4
604366
31515.4
565311
38263.2
534169
44358.5
498926
49376.1
470601
53856.9
438597
57252.2
413251
60143
384681
62046.5
362027
63374.1
336595
63753.7
316837
63581.7
294504
62496.1
277434
60902
257821
58472.9
242971
55592.3
225864
51909.2
213049
47800.9
198011
42638.7
187027
36673
174256
29219.6
165576
20207.9
155379
9362.24
148849
5544.82
721299
15794.5
678203
24990.3
641076
33172.9
599799
40444
566866
46774.8
529578
52323
499859
56960.3
465888
60904.5
438897
63904.1
408469
66384.9
384459
67796.9
357228
68769
335936
68670.2
312012
68165.5
293415
66626
272498
64726.7
256238
61879.6
237786
58684.6
223681
54717.4
207464
50207.4
195139
44770.5
180954
38388.5
170674
30573.9
158830
21078.1
150844
9886.01
141733
5827.92
764067
16651.2
718652
26279.2
679425
35011
636304
42571.5
601446
49445.8
562069
55176
530570
60366.5
494927
64419
466206
67987.7
433889
70542
408235
72543.2
379434
73571.3
356535
74071.7
330899
73615.3
310883
72656.1
288294
70788.5
270878
68463.3
250899
65280.5
235571
61806.9
217958
57423
204541
52661.9
188928
46812.1
177285
40128.1
163896
31882.1
154474
22020.5
143506
10339.9
135963
6140.14
809273
17500.2
761308
27708
719945
36814.3
674443
44934.3
638049
52046.9
596436
58332.2
563125
63660.8
525412
68277.7
495269
71916.1
460963
75057.4
433645
77091.7
402972
78727.3
378705
79247.2
351269
79404.8
329724
78458.8
305552
77180.4
286629
74853.2
265355
72190.8
248641
68713.4
229685
64812
214983
60184.5
198161
55009.1
185174
48888.4
170354
41779.4
159371
33185.1
146822
22855.6
137957
10863.8
127847
6450.49
856392
18439.3
806389
29119.3
762686
38820.6
714749
47249.2
676301
54941.6
632824
61403.9
597569
67309.5
557741
72009.8
525792
76232.9
489788
79402.4
460717
82035.5
428139
83672.2
402214
84808.3
373200
84957.8
350045
84628.7
324171
83340.1
303832
81596.9
280910
78908.3
263042
75951.4
242581
72017.5
226646
67879.2
208427
62827
194305
57397.1
178051
50855.7
165684
43443.5
151634
34425.1
141398
23751.5
129593
11310.1
120950
6792.02
906144
19370.2
853390
30685.2
807850
40795.1
757270
49829
716724
57772.1
670856
64824.6
634042
70857.3
591953
76144.9
558164
80406.2
520066
84177.8
489545
86793.3
454959
89047.9
427355
90144
396457
90926.6
371925
90552.4
344251
89892.8
322392
88104.7
297891
86001.2
278537
82999.5
256780
79567.9
239476
75392
219895
70813.3
204476
65520.7
186964
59659.3
173236
52847.4
157736
45000.1
145992
35649.8
132685
24528.4
122872
11808.5
111717
7130.61
958597
20397.4
903012
32232.6
854952
42994.5
802211
52364
759379
60932.5
711060
68167.9
672174
74812.6
628194
80165
592433
85033.1
552195
88795.9
519842
92025
483534
94224.3
454155
95947.3
421343
96659.1
395138
96922.8
365881
96192.6
342408
95031.3
316218
92858.3
295447
90443.4
272066
86934.9
253595
83260.7
232524
78622.9
215840
73806.5
196917
68077.9
181993
61953.8
165045
54711.6
151888
46558.1
137145
36795.8
126022
25335.2
113362
12242.7
103566
7500.99
1.0136e+06
21413.2
955342
33946.2
904672
45160
849084
55192
804460
64032.7
753489
71903.6
712486
78674.6
666090
84648.1
628739
89529.7
586215
93916.4
551995
97084
513571
99916.2
482717
101537
447878
102894
419982
103046
388831
102968
363975
101700
335981
100157
313702
97653.8
288739
94714.3
268804
90955.8
246419
86794.7
228374
81924.4
208049
76649.8
191806
70681
173538
64105.3
159002
56591.6
142788
47994
130226
37896.3
116135
26061
105332
12693.4
93154
7864.57
1.07151e+06
22527.5
1.01022e+06
35635.3
957121
47567
898575
57972.9
851492
67498
798346
75565.8
755040
82994.4
706169
89025.1
666718
94547.4
622273
98893.6
586053
102696
545466
105423
512754
107686
476173
108905
446482
109707
413408
109489
386864
108872
357287
107197
333385
105328
306750
102267
285387
99076.8
261400
94806.6
242160
90406.5
220352
85066.7
202793
79548.5
183095
73131.3
167293
66282.9
149623
58330.4
135630
49395.6
120178
38978.1
108116
26758.7
94616.6
13080.8
83736.6
8256.43
1.13215e+06
23618.7
1.068e+06
37495
1.01211e+06
49931.7
950789
61069.1
901150
70899.5
845149
79662.2
800030
87225.5
748484
93922.4
706888
99444
660000
104447
622158
108150
579260
111531
544658
113636
505937
115515
474748
116134
439629
116581
411385
115784
379901
114765
354614
112744
326165
110301
303309
106982
277729
103253
257043
98746.7
233887
93844
214967
88278.9
193816
82281.6
176673
75624
157623
68305.2
142241
60045.1
125323
50761.2
111896
39943.5
97038.3
27395.8
85266.4
13469.8
72222.8
8630.51
1.19586e+06
24798.5
1.12851e+06
39311.1
1.07004e+06
52545.8
1.00555e+06
64107.1
953552
74694.3
894581
83681.6
846989
91963.5
793239
98718.7
749312
104926
699923
109869
659951
114238
615104
117470
578473
120237
537570
121918
504496
123200
467617
123431
437554
123299
404144
122072
377150
120713
347121
118084
322625
115382
295391
111500
273256
107525
248521
102502
228362
97359.5
205730
91316.4
187214
85067.9
166724
77951.7
150017
70309.6
131654
61725.2
116806
52004.5
100666
40917.2
87686.4
27999.9
73439.3
13793.8
61660
9017.96
1.2625e+06
25922.7
1.19212e+06
41283.1
1.13071e+06
55091.3
1.06324e+06
67472.1
1.00851e+06
78412.4
946753
88169.2
896587
96608.4
839958
104091
794187
110292
742095
115938
699950
120179
652633
124098
614350
126656
571109
129016
536122
130049
497079
130960
465498
130568
430020
130011
401322
128421
369365
126438
343487
123543
314422
120249
290812
116125
264458
111594
242872
106349
218848
100686
198970
94423.8
176978
87676.6
158922
80273.1
139141
72284.4
122926
63275.4
105353
53252.9
91086.3
41781.4
75556.5
28560.4
62906.3
14108.8
49264.5
9355.7
1.33207e+06
27092.8
1.25866e+06
43159
1.19451e+06
57869
1.12369e+06
70747.1
1.06644e+06
82540.2
1.00149e+06
92565.1
948949
101801
889324
109358
841050
116307
786723
121880
742217
126833
692373
130569
651930
133820
606712
135925
569666
137641
528422
138265
494926
138552
457672
137702
427125
136788
393245
134539
365631
132290
334994
128778
309717
125230
281734
120537
258667
115762
233085
109995
211916
104090
188451
97343.2
168975
90284.1
147764
82571.4
130197
74116.2
111228
64838.8
95587.2
54388.3
78855.1
42669
65044.3
29092.4
50230
14368
37805.8
9641.18
1.40433e+06
28117.9
1.3282e+06
45125.3
1.26129e+06
60508.5
1.18729e+06
74331.4
1.12714e+06
86554.6
1.0592e+06
97450.6
1.00389e+06
106884
941450
115247
890571
122202
833337
128540
786952
133348
734376
137814
691732
140816
644015
143633
605286
145034
561675
146357
526246
146307
486797
146141
454715
144911
418736
143319
389420
140797
356827
137900
330174
134139
300333
129980
275811
125061
248580
119712
226005
113736
201099
107292
180268
100272
157525
92873
138627
84718.5
118240
75971.9
101293
66279.7
83196.8
55548.5
68184.9
43463
52146.4
29603.4
38797.7
14616.6
24850
9640.48
1.47904e+06
29027.9
1.40053e+06
46863.7
1.33117e+06
63299.9
1.25391e+06
77743.7
1.19104e+06
90963.1
1.1197e+06
102205
1.06184e+06
112541
996170
121014
942878
128798
882617
135069
833696
140651
778854
144911
733815
148649
683547
151164
642624
153280
597008
154246
559484
154892
517819
154353
483783
153812
446017
151864
414813
149998
380304
146802
351879
143644
320477
139258
294256
134847
265421
129354
241328
123763
214890
117260
192721
110506
168523
103188
148184
95296.2
126405
86898.8
108123
77689
88712.5
67751.9
72409.3
56610.8
55246.2
44298.2
40767.6
30093.1
25617.1
14815.5
12820.8
8248.33
1.55483e+06
29330.7
1.47569e+06
48495.7
1.40399e+06
65796.7
1.32371e+06
81378.4
1.25802e+06
95167.9
1.18341e+06
107437
1.1226e+06
118048
1.05389e+06
127437
997797
135256
934680
142377
883121
147811
825340
152865
778387
156323
725356
159593
682204
161341
634055
163037
594817
163270
550747
163432
514763
162489
474761
161211
442009
158980
405360
156408
375241
152956
341846
149126
314258
144509
283534
139465
258010
133763
229892
127580
206339
120807
180664
113710
158991
105930
135682
97762.5
116115
88927.9
95330.9
79446.5
77810.8
69112.2
59378
57717.8
43781.7
45056.5
27443.9
30564.6
13625.3
15033.4
-378.916
13024.5
1.73784e+06
27917.8
1.55326e+06
49449.2
1.48006e+06
68258.3
1.39664e+06
84675.9
1.32831e+06
99682.3
1.25027e+06
112444
1.18663e+06
124124
1.11445e+06
133695
1.05575e+06
142458
989369
149534
935355
155827
874516
160667
824992
164925
769660
167856
724076
170360
673351
171641
631877
172599
585777
172307
547650
172069
505422
170345
470666
168782
432222
165816
400165
162973
364869
158837
335465
154746
303195
149497
275937
144203
246243
137924
221142
131419
193966
124348
170922
116722
146192
108722
125200
100060
103086
91002.6
84293.6
81073.2
64645.6
70521.6
47860.5
58741
30464
45841.9
15525.2
31075.1
264.774
15191.3
-12695.9
15309.1
1.78395e+06
37342.8
1.72552e+06
49056.3
1.55936e+06
70075.2
1.47318e+06
88061.5
1.40191e+06
103832
1.32051e+06
117853
1.25387e+06
129955
1.1783e+06
140613
1.11657e+06
149476
1.04709e+06
157518
990233
163680
926498
169401
874302
173363
815996
177114
768461
179206
714933
181259
671203
181739
622526
182176
582657
181452
537973
180410
501258
178391
460525
176057
426912
172825
389426
169246
358342
164872
324037
160083
295425
154623
263813
148674
237305
142117
208428
135254
184031
127687
157808
119795
135519
111333
111914
102413
91903.8
92928.2
70964
82756.7
53063.8
71828.8
34502
59788.3
18513.1
46646.5
2080.58
31527.1
-12007.6
15379.2
-25866.8
16604.4
1.83748e+06
42988.1
1.77549e+06
61444.6
1.71925e+06
71110.1
1.55373e+06
90940.7
1.47939e+06
108213
1.39421e+06
122888
1.3246e+06
136293
1.24541e+06
147273
1.18073e+06
157252
1.10771e+06
165309
1.04818e+06
172446
981140
177963
926444
182811
865048
186202
814900
189114
759036
190701
712827
191948
661549
191861
619390
191869
572651
190291
533732
188950
490768
186129
455089
183511
415805
179530
382726
175679
346541
170611
316066
165562
282927
159464
254657
153174
224236
146307
198272
138866
170587
131094
146921
122668
121942
114005
100561
104597
78370.5
94912.9
59289.8
84316.8
39613.1
73154.4
22544.4
60871.2
5095.6
47400.5
-10116.6
32037.9
-25288.2
15520
-38254.6
17022.4
1.89561e+06
46248.5
1.83105e+06
69507.5
1.77397e+06
85427.6
1.70024e+06
93442.5
1.56102e+06
112197
1.47199e+06
128313
1.39892e+06
142255
1.31606e+06
154548
1.24819e+06
164758
1.17167e+06
173951
1.10904e+06
181007
1.03885e+06
187522
981266
192077
916927
196375
864072
198847
805190
201270
756991
201981
702859
202663
658418
202109
609042
201238
568356
199348
522871
197165
485226
194066
443589
190641
408951
186413
370520
181793
338385
176509
303172
170736
273561
164345
241206
157673
213865
150264
184477
142557
159492
134287
133035
125612
110405
116489
86797.2
106848
66579.1
96750.9
45713.6
85895.2
27623.6
74517.5
9113.63
61876.7
-7105.88
48209.9
-23441
32499.5
-37635.2
15690.2
-51216.5
16669.1
1.9569e+06
47520.4
1.89069e+06
74190
1.83324e+06
95190
1.75932e+06
108987
1.69522e+06
116215
1.55422e+06
133471
1.47746e+06
148766
1.3904e+06
161455
1.31929e+06
172996
1.23898e+06
182319
1.1733e+06
190516
1.0995e+06
196868
1.03919e+06
202425
971504
206360
916095
209738
854091
211662
803224
213202
746720
213296
699738
213513
647739
212026
604691
210838
557129
208069
517205
205586
473337
201666
436559
197956
396334
192965
362145
188072
325078
182085
293568
175946
259704
169226
230587
161916
199691
154304
173148
146013
145272
137556
121290
128349
96364.8
119044
74860.8
108931
52826.7
98599.2
33664.6
87512.7
14124.5
75772.3
-3071.71
62961.6
-20405.8
48966.1
-35728.8
33017
-50668
15823
-63532.9
15344
2.02038e+06
46652.5
1.95338e+06
76003.6
1.896e+06
100892
1.82175e+06
120032
1.75956e+06
132601
1.67597e+06
138986
1.56036e+06
155080
1.46905e+06
169066
1.39417e+06
180873
1.30996e+06
191535
1.24095e+06
199747
1.16355e+06
207259
1.10007e+06
212552
1.02918e+06
217509
970838
220436
905835
223283
852224
224247
792644
225171
743632
224759
688710
224013
643356
222193
593081
220080
551365
217018
504898
213650
466154
209471
423506
204916
387757
199699
348393
194007
315246
187707
279283
181155
248841
173838
216014
166252
188125
158096
158573
149555
133312
140601
106955
131168
84254.6
121409
60904.8
111027
40681.6
100483
20063.6
88998.6
1921.21
77114.5
-16381.1
63967.6
-32690.3
49781.7
-48782.4
33490
-62960.2
15981.3
-76178.7
13225.4
2.08546e+06
43887.7
2.01826e+06
74620.3
1.96168e+06
103133
1.88722e+06
126511
1.82668e+06
144507
1.74482e+06
155915
1.67137e+06
162009
1.5521e+06
176541
1.47341e+06
189605
1.38477e+06
200402
1.31233e+06
209945
1.23102e+06
217372
1.16441e+06
223822
1.08984e+06
228435
1.02871e+06
232381
960318
234712
904087
236588
841349
236879
789599
237299
732268
235863
684290
234776
631372
231992
587205
229561
538643
225597
497532
221926
452659
216908
414696
212064
373545
206072
338293
199985
300507
193331
268146
186073
233831
178549
204180
170316
173156
161978
146376
152853
118643
143728
94649.7
133777
70038.4
123778
48639.3
113160
26924.9
102204
7819.84
90583.1
-11450.8
78346.8
-28647
65056.1
-45738.8
50537.1
-61043.1
34012.8
-75648.1
16109.2
-88342.7
10523
2.1515e+06
39282.5
2.0846e+06
70670.2
2.02926e+06
101303
1.95565e+06
128848
1.89661e+06
151334
1.81599e+06
168309
1.74566e+06
179070
1.65278e+06
184809
1.55699e+06
198228
1.46396e+06
210264
1.3876e+06
219806
1.30225e+06
228570
1.23219e+06
234814
1.15395e+06
240599
1.08959e+06
244099
1.01792e+06
247466
958713
248740
892904
249945
838373
249685
777885
249047
727838
247251
671908
245150
625414
242052
574044
238648
531121
234410
483563
229809
443639
224553
399998
218827
363189
212499
323071
205964
289098
198650
252684
191099
221722
182974
188802
174482
160705
165597
131358
156247
106125
146625
80156.3
136394
57610.8
126182
34700.1
115109
14597.6
104026
-5645.44
92034.5
-23735.6
79669.5
-41718.8
66059.6
-58001.7
51352.3
-73739.5
34493.2
-87810.4
16247.3
-100606
7264.11
2.21835e+06
33104.5
2.15187e+06
63914.6
2.09827e+06
96287.1
2.0257e+06
126698
1.96909e+06
153752
1.88978e+06
175248
1.82209e+06
191727
1.73168e+06
202078
1.64918e+06
207895
1.5474e+06
220017
1.46728e+06
230795
1.37739e+06
239445
1.30378e+06
247013
1.22154e+06
252492
1.15396e+06
257151
1.07856e+06
259996
1.01648e+06
262293
947245
262833
890006
263486
826327
262102
773446
261095
715070
258240
665848
255796
611821
251706
566342
247978
516675
242815
474292
237906
428439
231796
389351
225641
347454
218929
311347
211611
273143
204082
240272
195813
205884
187502
176075
178364
145287
169314
118608
159391
91305.8
149523
67552.3
139052
43428.9
128370
22272.4
117171
988.948
105683
-17965.2
93589.6
-36875.7
80877.6
-53974.6
67145.1
-70718.5
52098.9
-85905.1
34994.2
-100092
16390.6
-112589
3817.55
2.28544e+06
25629.2
2.21963e+06
55013.5
2.1679e+06
87723.5
2.09723e+06
120781
2.04315e+06
151185
1.96582e+06
177804
1.9006e+06
198876
1.81252e+06
214848
1.73364e+06
225019
1.6318e+06
230889
1.55117e+06
241657
1.45694e+06
251570
1.37933e+06
258898
1.29294e+06
265706
1.22184e+06
269938
1.14269e+06
273951
1.07732e+06
275629
1.00472e+06
277190
944456
277127
877608
276617
821909
274842
760273
272720
708941
269525
651792
266011
603970
261628
551391
256875
507179
251458
458556
245575
417516
239101
373080
232457
335420
225014
294876
217382
260420
209185
223967
200642
192856
191726
160248
182356
132276
172757
103453
162542
78493.1
152459
53111.4
141475
30850.6
130675
8496.07
119047
-11408
107448
-31200.8
95007.4
-49160
82176.7
-66737.2
68137.3
-82894.5
52872.7
-98187.8
35517.7
-112095
16508.9
-124457
339.582
2.35233e+06
17558.7
2.28718e+06
44152.5
2.23755e+06
76639.9
2.16899e+06
110852
2.11839e+06
144601
2.0434e+06
174863
1.98151e+06
201327
1.89541e+06
221888
1.81974e+06
237663
1.7211e+06
247658
1.63004e+06
253756
1.5406e+06
263532
1.4593e+06
272151
1.36833e+06
278623
1.29357e+06
284163
1.21035e+06
287655
1.14167e+06
290478
1.06529e+06
291345
1.00205e+06
292300
931731
290998
873209
290088
808346
287148
754062
284654
694431
280367
643758
276502
588512
271100
541634
266015
490891
259654
447311
253303
400681
246412
360699
238900
318386
231228
281801
222797
243591
214407
210621
205144
176556
196061
146959
186055
116724
176199
90422.7
165737
63741.6
155129
40376.2
144030
16848.5
132763
-3987.61
121046
-24780.3
109046
-43522.1
96532
-62001.5
83355.5
-78922.8
69167.4
-95222.4
53666.7
-110229
35988.9
-123954
16649.4
-136232
-2899.3
2.41842e+06
9188.67
2.35422e+06
32181.7
2.30646e+06
62955.3
2.24056e+06
97911.5
2.19354e+06
133618
2.12188e+06
167903
2.06349e+06
198296
1.98035e+06
224319
1.90771e+06
244611
1.81174e+06
260379
1.72454e+06
270446
1.61437e+06
276833
1.5434e+06
285199
1.44811e+06
293013
1.36932e+06
298104
1.28186e+06
302909
1.20959e+06
305091
1.12935e+06
307092
1.06278e+06
307293
988979
306965
927388
305239
859230
303099
802090
299791
739071
296117
686250
291511
627759
286516
578525
280841
524769
274681
479342
267922
429878
261037
387957
253334
343086
245482
304951
237068
264433
228343
229901
219279
193849
209771
162954
200078
131007
189759
103432
179683
75351.5
168649
50806.6
157933
26132.5
146349
4225.81
134976
-17519
122857
-37176.5
110755
-56467.5
97913.5
-74226.6
84573.5
-91319.1
70222.8
-107278
54390.7
-122081
36506.8
-135767
16759.9
-147705
-5600.09
2.48322e+06
1277.5
2.41994e+06
19642.7
2.37408e+06
47756.1
2.31092e+06
81893.4
2.26801e+06
119258
2.2002e+06
156013
2.14645e+06
190891
2.06649e+06
221100
1.99755e+06
247159
1.90411e+06
267179
1.82041e+06
282777
1.71376e+06
292960
1.61456e+06
299636
1.53192e+06
307138
1.4495e+06
313624
1.35742e+06
317898
1.2814e+06
321362
1.19703e+06
322631
1.12702e+06
323954
1.04939e+06
322785
984691
322018
913017
319006
852909
316462
786633
311949
730717
307894
669709
302163
617496
296807
561067
290088
512875
283415
461281
276199
416762
268352
369719
260402
329257
251663
286980
243042
250368
233515
212587
224276
179924
214059
146528
204091
117450
193514
87976.1
182850
62217.5
171714
36270.9
160470
13370.4
148811
-9514.78
136970
-29993
124796
-50253.2
112296
-68736.1
99342.9
-86711.4
85821.1
-103399
71186.6
-119195
55163.1
-133964
36962.9
-147204
16900.3
-159277
-7515.09
2.54611e+06
-5803.46
2.48403e+06
7596.15
2.43957e+06
31563.7
2.37928e+06
64136.1
2.34052e+06
101339
2.2774e+06
140580
2.22886e+06
178403
2.15331e+06
213597
2.08862e+06
243770
1.99847e+06
269541
1.91791e+06
289322
1.81421e+06
305072
1.71925e+06
315317
1.60114e+06
322718
1.53382e+06
328835
1.43737e+06
334556
1.35728e+06
337389
1.26858e+06
339926
1.19491e+06
340439
1.11329e+06
340336
1.0452e+06
338695
969902
336571
906675
333156
836950
329311
778143
324450
713605
319148
659203
313119
599409
306575
548849
299419
494161
292159
447780
284042
397872
275824
355484
267048
310676
257990
272512
248616
232503
238827
198297
228907
163032
218351
132651
208150
101609
196933
74586.8
186172
47379.9
174492
23322.4
163151
-597.409
151034
-22116.5
139098
-43225.2
126544
-62594.3
113883
-81333.8
100806
-98838
86952.2
-115401
72214.8
-131092
55864
-145381
37470
-158827
17006.7
-170379
-8550.73
2.60673e+06
-11278.1
2.54565e+06
-3457.19
2.50276e+06
15666.7
2.44477e+06
44795
2.41042e+06
81236.7
2.35211e+06
121070
2.30983e+06
162140
2.23954e+06
200550
2.18041e+06
236227
2.09387e+06
266352
2.017e+06
292126
1.91585e+06
311643
1.82434e+06
327354
1.71019e+06
337886
1.60351e+06
345592
1.52131e+06
350834
1.4376e+06
355177
1.34423e+06
357009
1.26669e+06
358775
1.18088e+06
357755
1.1092e+06
357156
1.03002e+06
354093
963522
351524
890236
346777
828290
342515
760466
336411
702818
330716
640473
323530
586815
316422
529452
308763
480231
300436
428187
292049
383187
282844
336227
273844
295782
263891
254018
254332
217829
243749
180856
233530
148841
222697
116346
211837
87971.4
200528
59384.2
189173
34250.9
177435
9084.07
165564
-13323.4
153409
-35541.4
141007
-55639.4
128348
-75318.6
115507
-93510.4
102134
-110935
88164.4
-127331
73146.7
-142587
56611.6
-157104
37906.8
-169863
17151
-181774
-8604.54
2.66424e+06
-14718.6
2.60462e+06
-12504.3
2.56264e+06
877.942
2.50709e+06
25456.5
2.47633e+06
59151.9
2.42354e+06
99041.3
2.38766e+06
141380
2.32401e+06
183813
2.27116e+06
223171
2.1899e+06
258943
2.11764e+06
288762
2.01974e+06
314264
1.93089e+06
333764
1.81967e+06
349527
1.71751e+06
360360
1.59214e+06
368682
1.52208e+06
372548
1.42427e+06
375923
1.34262e+06
376935
1.25234e+06
377105
1.17694e+06
375545
1.09361e+06
373436
1.02365e+06
369924
946567
365915
881454
360788
810006
355147
749434
348717
683416
341706
627528
334038
566699
326284
515103
317623
459920
308889
413040
299582
363236
290027
320876
280188
276661
269949
238912
259627
199839
248673
166290
238202
132082
226653
102393
215701
72400.6
203783
46013.1
192342
19727.4
180088
-3813.18
168132
-26964.8
155543
-48070.9
142970
-68517.3
130191
-87563.6
116972
-105727
103556
-122916
89256.4
-138922
74142.5
-154317
57287.6
-168105
38399.7
-181324
17257.5
-192548
-7714.86
2.71885e+06
-16093.5
2.66061e+06
-18712.1
2.61894e+06
-11548.4
2.56531e+06
7189.79
2.5377e+06
36798.9
2.49003e+06
74578.9
2.46137e+06
117772
2.40487e+06
162079
2.36021e+06
205958
2.28522e+06
245598
2.21897e+06
281664
2.12478e+06
311189
2.03963e+06
336593
1.9306e+06
355766
1.83129e+06
371811
1.71031e+06
382576
1.5968e+06
391527
1.50836e+06
394366
1.42297e+06
396997
1.32799e+06
396329
1.24855e+06
395931
1.16096e+06
392779
1.08724e+06
390167
1.00621e+06
385179
937627
380711
862577
374207
798680
368134
729349
360423
670073
352790
606662
344565
551874
335626
494019
326668
444273
316837
392324
307283
347392
296731
301043
286688
261111
275563
220282
264911
184893
253653
148991
242444
117831
230806
86378.1
219189
58800.6
207226
31148.9
195188
6667.38
182919
-17701.8
170430
-39607.7
157741
-61125.8
144976
-80833.3
131858
-99901.4
118547
-117763
104840
-134603
90431.9
-150690
75038.5
-165405
58009.6
-179688
38815.2
-192007
17397.9
-203799
-5772.1
2.77037e+06
-14981.2
2.7133e+06
-21595.1
2.67188e+06
-20736.3
2.61912e+06
-8481.9
2.59381e+06
15264.5
2.55063e+06
49680.6
2.52891e+06
91296.4
2.48079e+06
137304
2.44496e+06
183522
2.37837e+06
228305
2.31947e+06
268402
2.23099e+06
304475
2.14978e+06
334014
2.04348e+06
359128
1.9463e+06
378054
1.82802e+06
393864
1.71907e+06
405074
1.58746e+06
414553
1.5075e+06
416558
1.40799e+06
417498
1.32439e+06
416255
1.23216e+06
414171
1.15464e+06
410503
1.06927e+06
406289
997168
400875
918116
394880
851005
388016
777872
380487
715638
372241
648432
363895
591373
354555
529991
345168
477862
335184
422783
324967
375952
314475
326839
303608
284998
292711
241851
281174
204888
270245
167055
258186
134365
246884
101379
234564
72474.8
222866
43585.8
210327
17863.8
198214
-7492.61
185456
-30498.2
172790
-52870.4
159983
-73544.5
146779
-93323.1
133646
-112000
119960
-129573
106219
-146421
91484.7
-161877
75999.9
-176987
58660.6
-190314
39269.4
-203341
17527.6
-214315
-2920.76
2.81999e+06
-11375.9
2.76296e+06
-20613.8
2.72097e+06
-25363.4
2.66859e+06
-20515.4
2.64435e+06
-3681.42
2.60485e+06
25030.4
2.58939e+06
63900.2
2.54958e+06
108980
2.52417e+06
157632
2.467e+06
205358
2.41774e+06
251386
2.33613e+06
291709
2.26133e+06
327802
2.1585e+06
356633
2.06424e+06
381427
1.94712e+06
400203
1.84043e+06
416023
1.71332e+06
427475
1.59368e+06
437785
1.49204e+06
438121
1.40462e+06
438567
1.30763e+06
435580
1.22587e+06
432922
1.13617e+06
427601
1.06009e+06
422869
977039
415924
906246
409452
829470
401166
763732
392948
693191
384087
632629
374424
568632
364754
513271
354145
455523
343887
405858
332558
354587
321839
310276
309982
265008
298717
226014
286845
186413
275088
152063
262937
117392
250889
87196.1
238533
56842.3
226165
30090.7
213629
3390.5
200917
-20438.2
188065
-43985.6
175197
-65394.9
162006
-86197
148718
-105491
135254
-123926
121488
-141448
107456
-157704
92623.8
-173497
76859.3
-187707
59321.4
-201791
39711.6
-213742
17665.6
-225486
2.86982e+06
1091.53
-5401.3
2.8108e+06
-15832.6
2.76714e+06
-25061.5
2.71388e+06
-27291.3
2.68921e+06
-18675.4
2.65211e+06
2908.55
2.6418e+06
36255.4
2.61012e+06
79376.9
2.59505e+06
127729
2.54931e+06
178746
2.51125e+06
228064
2.43945e+06
274747
2.37245e+06
315214
2.27512e+06
351131
2.18425e+06
379630
2.06905e+06
404212
1.96338e+06
422263
1.83803e+06
438188
1.7233e+06
449711
1.58624e+06
460474
1.48912e+06
460331
1.3874e+06
458982
1.30142e+06
455454
1.20688e+06
451009
1.12691e+06
445197
1.0393e+06
438764
964926
431416
883944
423327
814941
414446
740440
405441
676888
395336
609018
385179
551339
374364
490065
363328
438008
352019
383684
340341
337447
328665
289556
316349
248652
304775
206915
292005
170970
280149
134567
267234
102846
255104
71144.5
242103
43061.7
229665
15282.2
216585
-9759.3
203687
-34184.8
190724
-56645.5
177355
-78247.9
164174
-98455.3
150453
-117566
136987
-135858
122853
-152853
108793
-169369
93638.4
-184315
77738.9
-199173
60020.8
-212114
40127
-225017
17798.1
-235790
2.85829e+06
3387.73
2.88173e+06
5151.53
-7162.73
2.81136e+06
-19453.8
2.75595e+06
-28071
2.7292e+06
-27788.7
2.69226e+06
-15079.3
2.68546e+06
11063.8
2.66074e+06
48973
2.65642e+06
96053.1
2.6224e+06
147466
2.59784e+06
200892
2.53761e+06
251292
2.48165e+06
298823
2.39152e+06
339114
2.30667e+06
375015
2.19375e+06
402968
2.08976e+06
426822
1.96435e+06
444836
1.85055e+06
460572
1.71803e+06
472259
1.59357e+06
483792
1.47128e+06
481822
1.3813e+06
479985
1.28193e+06
474647
1.19749e+06
469612
1.10549e+06
462087
1.02689e+06
455115
941856
446184
868965
437330
790781
427765
723574
417295
652346
406825
591108
395306
527185
384184
471919
371906
414926
360344
365956
347557
315888
335469
272676