/*--------------------------------*- C++ -*----------------------------------*\
  =========                 |
  \\      /  F ield         | OpenFOAM: The Open Source CFD Toolbox
   \\    /   O peration     | Website:  https://openfoam.org
    \\  /    A nd           | Version:  12
     \\/     M anipulation  |
\*---------------------------------------------------------------------------*/
FoamFile
{
    format      ascii;
    class       volVectorField;
    location    "0";
    object      U;
}
// * * * * * * * * * * * * * * * * * * * * * * * * * * * * * * * * * * * * * //

dimensions      [0 1 -1 0 0 0 0];

internalField   nonuniform List<vector> 
42400
(
(-6.67394e+06 -6192.82 0)
(-6.72226e+06 -16747.3 0)
(-6.65984e+06 -18417.3 0)
(-6.8092e+06 -28101.4 0)
(-6.70044e+06 -52140.7 0)
(-6.64258e+06 -26874 0)
(-6.94646e+06 -40915.3 0)
(-6.78747e+06 -86080.5 0)
(-6.68098e+06 -81758.1 0)
(-6.6024e+06 -37980.4 0)
(-7.13008e+06 -52790.2 0)
(-6.92515e+06 -122517 0)
(-6.76927e+06 -142560 0)
(-6.64109e+06 -116675 0)
(-6.56381e+06 -46579.9 0)
(-7.36137e+06 -65031.1 0)
(-7.10947e+06 -158545 0)
(-6.90718e+06 -204947 0)
(-6.73094e+06 -201294 0)
(-6.60176e+06 -147233 0)
(-6.51918e+06 -57314.2 0)
(-7.64133e+06 -77387.9 0)
(-7.34134e+06 -195359 0)
(-7.09299e+06 -264815 0)
(-6.87017e+06 -287420 0)
(-6.69321e+06 -259247 0)
(-6.557e+06 -182590 0)
(-6.4697e+06 -65847.6 0)
(-7.96973e+06 -89834.1 0)
(-7.62183e+06 -232438 0)
(-7.32644e+06 -326024 0)
(-7.05801e+06 -372135 0)
(-6.83456e+06 -371556 0)
(-6.65042e+06 -319875 0)
(-6.50735e+06 -214083 0)
(-6.41532e+06 -76492.4 0)
(-8.34736e+06 -102264 0)
(-7.95048e+06 -269759 0)
(-7.60842e+06 -387655 0)
(-7.29345e+06 -457916 0)
(-7.02519e+06 -480448 0)
(-6.79445e+06 -456536 0)
(-6.60282e+06 -380194 0)
(-6.45327e+06 -250400 0)
(-6.35633e+06 -85178.9 0)
(-8.77323e+06 -114658 0)
(-8.32818e+06 -307011 0)
(-7.93813e+06 -449645 0)
(-7.57704e+06 -544004 0)
(-7.26333e+06 -590415 0)
(-6.9882e+06 -590567 0)
(-6.74987e+06 -543627 0)
(-6.55095e+06 -443404 0)
(-6.39493e+06 -283170 0)
(-6.29361e+06 -96150.7 0)
(-9.2482e+06 -126935 0)
(-8.75378e+06 -344159 0)
(-8.3166e+06 -511496 0)
(-7.90771e+06 -630505 0)
(-7.54916e+06 -700533 0)
(-7.22924e+06 -724818 0)
(-6.94691e+06 -701948 0)
(-6.70101e+06 -631814 0)
(-6.4947e+06 -506383 0)
(-6.33326e+06 -320872 0)
(-6.22695e+06 -105375 0)
(-9.77052e+06 -139137 0)
(-9.22833e+06 -380963 0)
(-8.74247e+06 -573192 0)
(-8.28657e+06 -716774 0)
(-7.88129e+06 -811078 0)
(-7.51742e+06 -858767 0)
(-7.19092e+06 -859994 0)
(-6.90121e+06 -815256 0)
(-6.64771e+06 -722049 0)
(-6.43502e+06 -572144 0)
(-6.26785e+06 -355192 0)
(-6.15689e+06 -116987 0)
(-1.03412e+07 -151254 0)
(-9.74994e+06 -417562 0)
(-9.21709e+06 -634338 0)
(-8.71218e+06 -802866 0)
(-8.26093e+06 -921325 0)
(-7.85108e+06 -993081 0)
(-7.48144e+06 -1.01727e+06 0)
(-7.14802e+06 -997105 0)
(-6.85089e+06 -929672 0)
(-6.59068e+06 -813229 0)
(-6.37144e+06 -637483 0)
(-6.19917e+06 -394477 0)
(-6.08289e+06 -126913 0)
(-1.09586e+07 -163369 0)
(-1.03199e+07 -453907 0)
(-9.73841e+06 -695179 0)
(-9.1861e+06 -888250 0)
(-8.68661e+06 -1.03141e+06 0)
(-8.23145e+06 -1.12703e+06 0)
(-7.81658e+06 -1.17481e+06 0)
(-7.44066e+06 -1.17745e+06 0)
(-7.10025e+06 -1.13479e+06 0)
(-6.79649e+06 -1.04576e+06 0)
(-6.52947e+06 -906153 0)
(-6.30448e+06 -705407 0)
(-6.1266e+06 -430372 0)
(-6.00497e+06 -139254 0)
(-1.16244e+07 -175492 0)
(-1.09363e+07 -490255 0)
(-1.0308e+07 -755626 0)
(-9.70628e+06 -973279 0)
(-9.16009e+06 -1.14069e+06 0)
(-8.65713e+06 -1.2609e+06 0)
(-8.19759e+06 -1.33196e+06 0)
(-7.77707e+06 -1.35789e+06 0)
(-7.39476e+06 -1.33768e+06 0)
(-7.04801e+06 -1.27411e+06 0)
(-6.73755e+06 -1.16262e+06 0)
(-6.4645e+06 -999725 0)
(-6.23334e+06 -772631 0)
(-6.05017e+06 -471114 0)
(-5.92221e+06 -149942 0)
(-1.23372e+07 -187719 0)
(-1.16012e+07 -526630 0)
(-1.09238e+07 -816103 0)
(-1.02745e+07 -1.0578e+06 0)
(-9.67937e+06 -1.24962e+06 0)
(-9.13004e+06 -1.39392e+06 0)
(-8.62314e+06 -1.48914e+06 0)
(-8.15852e+06 -1.53793e+06 0)
(-7.7322e+06 -1.54048e+06 0)
(-7.34407e+06 -1.49929e+06 0)
(-6.9909e+06 -1.41368e+06 0)
(-6.67442e+06 -1.28082e+06 0)
(-6.39504e+06 -1.0946e+06 0)
(-6.15814e+06 -842140 0)
(-5.96882e+06 -508394 0)
(-5.83437e+06 -162998 0)
(-1.30992e+07 -200069 0)
(-1.23127e+07 -563320 0)
(-1.15881e+07 -876636 0)
(-1.08887e+07 -1.1424e+06 0)
(-1.02464e+07 -1.35798e+06 0)
(-9.64825e+06 -1.52666e+06 0)
(-9.09528e+06 -1.64552e+06 0)
(-8.58371e+06 -1.71817e+06 0)
(-8.11383e+06 -1.74289e+06 0)
(-7.68222e+06 -1.72413e+06 0)
(-7.28814e+06 -1.66067e+06 0)
(-6.92921e+06 -1.55458e+06 0)
(-6.60646e+06 -1.39936e+06 0)
(-6.32116e+06 -1.18979e+06 0)
(-6.0778e+06 -910661 0)
(-5.88233e+06 -550369 0)
(-5.74036e+06 -174377 0)
(-1.39088e+07 -212640 0)
(-1.30736e+07 -600384 0)
(-1.22989e+07 -937707 0)
(-1.15512e+07 -1.22711e+06 0)
(-1.08591e+07 -1.46651e+06 0)
(-1.02139e+07 -1.65881e+06 0)
(-9.61221e+06 -1.80174e+06 0)
(-9.05484e+06 -1.89771e+06 0)
(-8.53841e+06 -1.94573e+06 0)
(-8.06375e+06 -1.94858e+06 0)
(-7.62671e+06 -1.90703e+06 0)
(-7.22726e+06 -1.82315e+06 0)
(-6.86232e+06 -1.69529e+06 0)
(-6.53371e+06 -1.51887e+06 0)
(-6.24187e+06 -1.28592e+06 0)
(-5.99223e+06 -981222 0)
(-5.78962e+06 -588805 0)
(-5.63984e+06 -188089 0)
(-1.47694e+07 -225461 0)
(-1.38819e+07 -638112 0)
(-1.30592e+07 -999402 0)
(-1.22601e+07 -1.31259e+06 0)
(-1.15201e+07 -1.57523e+06 0)
(-1.08249e+07 -1.79128e+06 0)
(-1.01762e+07 -1.95743e+06 0)
(-9.57025e+06 -2.07729e+06 0)
(-9.00828e+06 -2.14802e+06 0)
(-8.48747e+06 -2.17373e+06 0)
(-8.00786e+06 -2.15305e+06 0)
(-7.56594e+06 -2.09075e+06 0)
(-7.16087e+06 -1.985e+06 0)
(-6.79027e+06 -1.83699e+06 0)
(-6.45523e+06 -1.63834e+06 0)
(-6.15704e+06 -1.38206e+06 0)
(-5.90016e+06 -1.05059e+06 0)
(-5.69042e+06 -631766 0)
(-5.53168e+06 -200141 0)
(-1.56799e+07 -238635 0)
(-1.47413e+07 -676590 0)
(-1.38666e+07 -1.06222e+06 0)
(-1.30183e+07 -1.39897e+06 0)
(-1.22273e+07 -1.68498e+06 0)
(-1.14841e+07 -1.92403e+06 0)
(-1.07853e+07 -2.11361e+06 0)
(-1.01323e+07 -2.25644e+06 0)
(-9.52187e+06 -2.35061e+06 0)
(-8.9558e+06 -2.39857e+06 0)
(-8.43045e+06 -2.40007e+06 0)
(-7.94643e+06 -2.35803e+06 0)
(-7.49936e+06 -2.27338e+06 0)
(-7.08899e+06 -2.14763e+06 0)
(-6.71218e+06 -1.97815e+06 0)
(-6.37088e+06 -1.75846e+06 0)
(-6.06549e+06 -1.47881e+06 0)
(-5.80147e+06 -1.12174e+06 0)
(-5.58346e+06 -671128 0)
(-5.41539e+06 -214468 0)
(-1.66441e+07 -252189 0)
(-1.56503e+07 -716128 0)
(-1.47253e+07 -1.12629e+06 0)
(-1.38237e+07 -1.48693e+06 0)
(-1.29838e+07 -1.7959e+06 0)
(-1.21893e+07 -2.05811e+06 0)
(-1.14424e+07 -2.27021e+06 0)
(-1.07392e+07 -2.4363e+06 0)
(-1.00817e+07 -2.55294e+06 0)
(-9.46733e+06 -2.62402e+06 0)
(-8.89699e+06 -2.64704e+06 0)
(-8.36765e+06 -2.62665e+06 0)
(-7.87892e+06 -2.56147e+06 0)
(-7.42701e+06 -2.45653e+06 0)
(-7.01075e+06 -2.30933e+06 0)
(-6.62789e+06 -2.11997e+06 0)
(-6.2795e+06 -1.87821e+06 0)
(-5.96701e+06 -1.5753e+06 0)
(-5.69484e+06 -1.19145e+06 0)
(-5.46838e+06 -714865 0)
(-5.28982e+06 -227133 0)
(-1.76609e+07 -266222 0)
(-1.66132e+07 -756812 0)
(-1.56335e+07 -1.19214e+06 0)
(-1.46803e+07 -1.57665e+06 0)
(-1.37873e+07 -1.9089e+06 0)
(-1.29438e+07 -2.19366e+06 0)
(-1.21453e+07 -2.42847e+06 0)
(-1.13938e+07 -2.61678e+06 0)
(-1.0686e+07 -2.75625e+06 0)
(-1.00247e+07 -2.84942e+06 0)
(-9.40618e+06 -2.89501e+06 0)
(-8.83215e+06 -2.89556e+06 0)
(-8.29852e+06 -2.85125e+06 0)
(-7.80539e+06 -2.76515e+06 0)
(-7.34803e+06 -2.63831e+06 0)
(-6.926e+06 -2.47151e+06 0)
(-6.53626e+06 -2.26092e+06 0)
(-6.18088e+06 -1.99829e+06 0)
(-5.86032e+06 -1.67205e+06 0)
(-5.57998e+06 -1.26274e+06 0)
(-5.34391e+06 -754965 0)
(-5.15454e+06 -242026 0)
(-1.87353e+07 -280765 0)
(-1.76285e+07 -798930 0)
(-1.65958e+07 -1.25988e+06 0)
(-1.55863e+07 -1.66886e+06 0)
(-1.46422e+07 -2.02416e+06 0)
(-1.37452e+07 -2.33177e+06 0)
(-1.28974e+07 -2.58851e+06 0)
(-1.20941e+07 -2.79926e+06 0)
(-1.13379e+07 -2.96041e+06 0)
(-1.06262e+07 -3.07614e+06 0)
(-9.96072e+06 -3.1432e+06 0)
(-9.33877e+06 -3.16589e+06 0)
(-8.76074e+06 -3.14169e+06 0)
(-8.22314e+06 -3.07584e+06 0)
(-7.72497e+06 -2.96704e+06 0)
(-7.26225e+06 -2.82035e+06 0)
(-6.83357e+06 -2.63245e+06 0)
(-6.437e+06 -2.4022e+06 0)
(-6.07366e+06 -2.1176e+06 0)
(-5.74505e+06 -1.76824e+06 0)
(-5.45541e+06 -1.33238e+06 0)
(-5.2098e+06 -799214 0)
(-5.00818e+06 -255280 0)
(-1.98665e+07 -295917 0)
(-1.87015e+07 -842575 0)
(-1.76102e+07 -1.33003e+06 0)
(-1.65464e+07 -1.76374e+06 0)
(-1.55463e+07 -2.14265e+06 0)
(-1.4598e+07 -2.47267e+06 0)
(-1.36965e+07 -2.75163e+06 0)
(-1.28436e+07 -2.98387e+06 0)
(-1.20353e+07 -3.16694e+06 0)
(-1.12749e+07 -3.30397e+06 0)
(-1.05591e+07 -3.39308e+06 0)
(-9.89029e+06 -3.43677e+06 0)
(-9.26456e+06 -3.43402e+06 0)
(-8.68287e+06 -3.38763e+06 0)
(-8.14064e+06 -3.29823e+06 0)
(-7.6375e+06 -3.16893e+06 0)
(-7.16851e+06 -3.00075e+06 0)
(-6.73315e+06 -2.79356e+06 0)
(-6.32877e+06 -2.5422e+06 0)
(-5.95741e+06 -2.2369e+06 0)
(-5.61972e+06 -1.86431e+06 0)
(-5.32098e+06 -1.40322e+06 0)
(-5.06442e+06 -839746 0)
(-4.85038e+06 -270675 0)
(-2.10601e+07 -311702 0)
(-1.9831e+07 -888055 0)
(-1.86826e+07 -1.40273e+06 0)
(-1.75586e+07 -1.862e+06 0)
(-1.65047e+07 -2.26457e+06 0)
(-1.55001e+07 -2.61756e+06 0)
(-1.4547e+07 -2.9181e+06 0)
(-1.364e+07 -3.17209e+06 0)
(-1.27817e+07 -3.37599e+06 0)
(-1.19691e+07 -3.5346e+06 0)
(-1.12045e+07 -3.64439e+06 0)
(-1.04853e+07 -3.70976e+06 0)
(-9.81281e+06 -3.7273e+06 0)
(-9.18369e+06 -3.70181e+06 0)
(-8.59766e+06 -3.63096e+06 0)
(-8.05089e+06 -3.52039e+06 0)
(-7.54179e+06 -3.3688e+06 0)
(-7.06645e+06 -3.18112e+06 0)
(-6.62331e+06 -2.95301e+06 0)
(-6.21103e+06 -2.68215e+06 0)
(-5.83059e+06 -2.35499e+06 0)
(-5.48402e+06 -1.95936e+06 0)
(-5.17493e+06 -1.47206e+06 0)
(-4.90753e+06 -884153 0)
(-4.67957e+06 -284394 0)
(-2.23151e+07 -328212 0)
(-2.10231e+07 -935436 0)
(-1.98114e+07 -1.47848e+06 0)
(-1.86288e+07 -1.96382e+06 0)
(-1.75151e+07 -2.39086e+06 0)
(-1.64565e+07 -2.76665e+06 0)
(-1.54467e+07 -3.08928e+06 0)
(-1.44878e+07 -3.36421e+06 0)
(-1.35751e+07 -3.58921e+06 0)
(-1.27123e+07 -3.76814e+06 0)
(-1.18951e+07 -3.89895e+06 0)
(-1.11271e+07 -3.98454e+06 0)
(-1.04043e+07 -4.02315e+06 0)
(-9.72847e+06 -4.01737e+06 0)
(-9.09528e+06 -3.96665e+06 0)
(-8.50498e+06 -3.87387e+06 0)
(-7.95265e+06 -3.74012e+06 0)
(-7.43746e+06 -3.56841e+06 0)
(-6.95459e+06 -3.35947e+06 0)
(-6.50346e+06 -3.11228e+06 0)
(-6.08216e+06 -2.82036e+06 0)
(-5.69278e+06 -2.47248e+06 0)
(-5.33618e+06 -2.05371e+06 0)
(-5.01711e+06 -1.54165e+06 0)
(-4.73737e+06 -924677 0)
(-4.49539e+06 -300122 0)
(-2.36382e+07 -345466 0)
(-2.22765e+07 -984993 0)
(-2.10029e+07 -1.5574e+06 0)
(-1.97553e+07 -2.06994e+06 0)
(-1.85836e+07 -2.52173e+06 0)
(-1.7465e+07 -2.92109e+06 0)
(-1.64008e+07 -3.26546e+06 0)
(-1.53849e+07 -3.56183e+06 0)
(-1.44198e+07 -3.80691e+06 0)
(-1.35023e+07 -4.00643e+06 0)
(-1.26347e+07 -4.15686e+06 0)
(-1.1814e+07 -4.26306e+06 0)
(-1.10421e+07 -4.3212e+06 0)
(-1.03161e+07 -4.33603e+06 0)
(-9.63636e+06 -4.30421e+06 0)
(-8.99922e+06 -4.23093e+06 0)
(-8.40359e+06 -4.114e+06 0)
(-7.84556e+06 -3.95938e+06 0)
(-7.32297e+06 -3.76565e+06 0)
(-6.83229e+06 -3.53747e+06 0)
(-6.37188e+06 -3.26946e+06 0)
(-5.94164e+06 -2.95788e+06 0)
(-5.54207e+06 -2.58811e+06 0)
(-5.17589e+06 -2.14639e+06 0)
(-4.8454e+06 -1.60876e+06 0)
(-4.55369e+06 -968626 0)
(-4.29604e+06 -314092 0)
(-2.5029e+07 -363550 0)
(-2.3598e+07 -1.03678e+06 0)
(-2.22555e+07 -1.63995e+06 0)
(-2.09447e+07 -2.18049e+06 0)
(-1.97085e+07 -2.65813e+06 0)
(-1.85316e+07 -3.08114e+06 0)
(-1.74071e+07 -3.448e+06 0)
(-1.63364e+07 -3.76525e+06 0)
(-1.53139e+07 -4.03088e+06 0)
(-1.43436e+07 -4.24981e+06 0)
(-1.3421e+07 -4.42014e+06 0)
(-1.25496e+07 -4.54541e+06 0)
(-1.1725e+07 -4.62352e+06 0)
(-1.09499e+07 -4.65732e+06 0)
(-1.022e+07 -4.64542e+06 0)
(-9.53643e+06 -4.59037e+06 0)
(-8.89423e+06 -4.49207e+06 0)
(-8.29311e+06 -4.35348e+06 0)
(-7.72803e+06 -4.17592e+06 0)
(-7.19765e+06 -3.96236e+06 0)
(-6.69772e+06 -3.71309e+06 0)
(-6.228e+06 -3.42582e+06 0)
(-5.78747e+06 -3.09299e+06 0)
(-5.37809e+06 -2.70238e+06 0)
(-5.00104e+06 -2.23759e+06 0)
(-4.65969e+06 -1.67595e+06 0)
(-4.35431e+06 -1.00837e+06 0)
(-4.08122e+06 -329807 0)
(-2.64944e+07 -382461 0)
(-2.4987e+07 -1.09106e+06 0)
(-2.35766e+07 -1.72622e+06 0)
(-2.21951e+07 -2.29614e+06 0)
(-2.08964e+07 -2.80023e+06 0)
(-1.96547e+07 -3.24798e+06 0)
(-1.84716e+07 -3.63718e+06 0)
(-1.73401e+07 -3.97603e+06 0)
(-1.62624e+07 -4.26147e+06 0)
(-1.52344e+07 -4.50027e+06 0)
(-1.42587e+07 -4.68913e+06 0)
(-1.3332e+07 -4.83376e+06 0)
(-1.24565e+07 -4.93016e+06 0)
(-1.16286e+07 -4.98346e+06 0)
(-1.08495e+07 -4.98976e+06 0)
(-1.0116e+07 -4.95406e+06 0)
(-9.42736e+06 -4.87312e+06 0)
(-8.77999e+06 -4.75243e+06 0)
(-8.17192e+06 -4.58989e+06 0)
(-7.59936e+06 -4.39177e+06 0)
(-7.05958e+06 -4.15642e+06 0)
(-6.55027e+06 -3.88779e+06 0)
(-6.06969e+06 -3.57947e+06 0)
(-5.6192e+06 -3.22664e+06 0)
(-5.1986e+06 -2.81395e+06 0)
(-4.81135e+06 -2.32631e+06 0)
(-4.45748e+06 -1.74e+06 0)
(-4.13907e+06 -1.05086e+06 0)
(-3.84897e+06 -343563 0)
(-2.80336e+07 -402263 0)
(-2.64508e+07 -1.14783e+06 0)
(-2.4965e+07 -1.81666e+06 0)
(-2.35142e+07 -2.41699e+06 0)
(-2.21453e+07 -2.94891e+06 0)
(-2.08409e+07 -3.42179e+06 0)
(-1.95927e+07 -3.8344e+06 0)
(-1.84023e+07 -4.1945e+06 0)
(-1.72634e+07 -4.50045e+06 0)
(-1.61797e+07 -4.75817e+06 0)
(-1.51459e+07 -4.966e+06 0)
(-1.41658e+07 -5.12846e+06 0)
(-1.32347e+07 -5.24348e+06 0)
(-1.23557e+07 -5.31447e+06 0)
(-1.15237e+07 -5.33954e+06 0)
(-1.0741e+07 -5.32142e+06 0)
(-1.00025e+07 -5.25905e+06 0)
(-9.30883e+06 -5.15497e+06 0)
(-8.65481e+06 -5.0094e+06 0)
(-8.0393e+06 -4.82547e+06 0)
(-7.45757e+06 -4.60466e+06 0)
(-6.90812e+06 -4.34946e+06 0)
(-6.38773e+06 -4.05954e+06 0)
(-5.89652e+06 -3.73157e+06 0)
(-5.43453e+06 -3.35708e+06 0)
(-5.00339e+06 -2.92322e+06 0)
(-4.60437e+06 -2.41267e+06 0)
(-4.23883e+06 -1.80332e+06 0)
(-3.9057e+06 -1.08865e+06 0)
(-3.59943e+06 -358704 0)
(-2.96544e+07 -422923 0)
(-2.79882e+07 -1.20727e+06 0)
(-2.64286e+07 -1.91123e+06 0)
(-2.49004e+07 -2.54371e+06 0)
(-2.3463e+07 -3.10428e+06 0)
(-2.20882e+07 -3.60366e+06 0)
(-2.07771e+07 -4.03987e+06 0)
(-1.95211e+07 -4.42228e+06 0)
(-1.83228e+07 -4.74817e+06 0)
(-1.71776e+07 -5.02549e+06 0)
(-1.60877e+07 -5.25117e+06 0)
(-1.50492e+07 -5.4319e+06 0)
(-1.40643e+07 -5.56382e+06 0)
(-1.31296e+07 -5.65283e+06 0)
(-1.22462e+07 -5.69477e+06 0)
(-1.14106e+07 -5.69487e+06 0)
(-1.06228e+07 -5.64922e+06 0)
(-9.87948e+06 -5.56306e+06 0)
(-9.17911e+06 -5.43316e+06 0)
(-8.51799e+06 -5.26542e+06 0)
(-7.89321e+06 -5.0578e+06 0)
(-7.30198e+06 -4.81641e+06 0)
(-6.74095e+06 -4.53937e+06 0)
(-6.20967e+06 -4.22973e+06 0)
(-5.70611e+06 -3.88023e+06 0)
(-5.23331e+06 -3.48516e+06 0)
(-4.78998e+06 -3.02891e+06 0)
(-4.38022e+06 -2.49569e+06 0)
(-4.00103e+06 -1.86283e+06 0)
(-3.6546e+06 -1.1283e+06 0)
(-3.3305e+06 -371666 0)
(-3.1356e+07 -444459 0)
(-2.96074e+07 -1.26929e+06 0)
(-2.79654e+07 -2.01029e+06 0)
(-2.63619e+07 -2.67621e+06 0)
(-2.4848e+07 -3.26719e+06 0)
(-2.34045e+07 -3.79372e+06 0)
(-2.20227e+07 -4.25491e+06 0)
(-2.07033e+07 -4.6596e+06 0)
(-1.94391e+07 -5.00647e+06 0)
(-1.8234e+07 -5.30264e+06 0)
(-1.70821e+07 -5.54682e+06 0)
(-1.59872e+07 -5.7445e+06 0)
(-1.49436e+07 -5.89376e+06 0)
(-1.39547e+07 -5.99893e+06 0)
(-1.30155e+07 -6.05808e+06 0)
(-1.21282e+07 -6.07439e+06 0)
(-1.12876e+07 -6.04616e+06 0)
(-1.04949e+07 -5.97604e+06 0)
(-9.74505e+06 -5.86317e+06 0)
(-9.03753e+06 -5.7103e+06 0)
(-8.36741e+06 -5.5179e+06 0)
(-7.73297e+06 -5.2889e+06 0)
(-7.13023e+06 -5.02484e+06 0)
(-6.55769e+06 -4.72771e+06 0)
(-6.01367e+06 -4.39634e+06 0)
(-5.49846e+06 -4.02656e+06 0)
(-5.0131e+06 -3.60926e+06 0)
(-4.55874e+06 -3.13144e+06 0)
(-4.13631e+06 -2.57563e+06 0)
(-3.74507e+06 -1.92076e+06 0)
(-3.38326e+06 -1.16283e+06 0)
(-3.04332e+06 -385584 0)
(-3.31461e+07 -466755 0)
(-3.13071e+07 -1.33396e+06 0)
(-2.95845e+07 -2.11365e+06 0)
(-2.78968e+07 -2.81503e+06 0)
(-2.63084e+07 -3.43757e+06 0)
(-2.47882e+07 -3.99304e+06 0)
(-2.33374e+07 -4.47963e+06 0)
(-2.1947e+07 -4.90798e+06 0)
(-2.06189e+07 -5.27561e+06 0)
(-1.93475e+07 -5.59165e+06 0)
(-1.81353e+07 -5.85337e+06 0)
(-1.6978e+07 -6.06864e+06 0)
(-1.58776e+07 -6.23374e+06 0)
(-1.48297e+07 -6.35551e+06 0)
(-1.3836e+07 -6.42986e+06 0)
(-1.28928e+07 -6.46273e+06 0)
(-1.20002e+07 -6.44982e+06 0)
(-1.11547e+07 -6.39648e+06 0)
(-1.03553e+07 -6.29871e+06 0)
(-9.59857e+06 -6.16216e+06 0)
(-8.88189e+06 -5.98365e+06 0)
(-8.20242e+06 -5.76905e+06 0)
(-7.55612e+06 -5.51644e+06 0)
(-6.94192e+06 -5.23166e+06 0)
(-6.35584e+06 -4.91241e+06 0)
(-5.79983e+06 -4.5607e+06 0)
(-5.27112e+06 -4.16879e+06 0)
(-4.77452e+06 -3.73025e+06 0)
(-4.30722e+06 -3.22978e+06 0)
(-3.87383e+06 -2.65164e+06 0)
(-3.46815e+06 -1.97447e+06 0)
(-3.09326e+06 -1.19843e+06 0)
(-2.73655e+06 -397111 0)
(-3.5023e+07 -489702 0)
(-3.30958e+07 -1.40092e+06 0)
(-3.12841e+07 -2.22145e+06 0)
(-2.95141e+07 -2.95989e+06 0)
(-2.78423e+07 -3.6161e+06 0)
(-2.62475e+07 -4.2015e+06 0)
(-2.47197e+07 -4.71531e+06 0)
(-2.326e+07 -5.16757e+06 0)
(-2.18604e+07 -5.55734e+06 0)
(-2.05247e+07 -5.89281e+06 0)
(-1.92458e+07 -6.17307e+06 0)
(-1.80277e+07 -6.40478e+06 0)
(-1.68645e+07 -6.58634e+06 0)
(-1.57595e+07 -6.72304e+06 0)
(-1.47065e+07 -6.81302e+06 0)
(-1.37084e+07 -6.86029e+06 0)
(-1.27598e+07 -6.86308e+06 0)
(-1.18621e+07 -6.82432e+06 0)
(-1.10099e+07 -6.74246e+06 0)
(-1.02034e+07 -6.62026e+06 0)
(-9.4378e+06 -6.45711e+06 0)
(-8.71156e+06 -6.25559e+06 0)
(-8.02047e+06 -6.01639e+06 0)
(-7.36232e+06 -5.74236e+06 0)
(-6.73451e+06 -5.43471e+06 0)
(-6.13565e+06 -5.09494e+06 0)
(-5.56572e+06 -4.72093e+06 0)
(-5.02498e+06 -4.30804e+06 0)
(-4.51522e+06 -3.84677e+06 0)
(-4.03702e+06 -3.32444e+06 0)
(-3.59025e+06 -2.72433e+06 0)
(-3.17282e+06 -2.02619e+06 0)
(-2.78284e+06 -1.2288e+06 0)
(-2.41274e+06 -409167 0)
(-3.69935e+07 -512969 0)
(-3.4971e+07 -1.46986e+06 0)
(-3.30731e+07 -2.33311e+06 0)
(-3.12119e+07 -3.11103e+06 0)
(-2.94589e+07 -3.80244e+06 0)
(-2.77805e+07 -4.41997e+06 0)
(-2.61779e+07 -4.96184e+06 0)
(-2.46407e+07 -5.43986e+06 0)
(-2.31713e+07 -5.85179e+06 0)
(-2.17638e+07 -6.20808e+06 0)
(-2.042e+07 -6.50625e+06 0)
(-1.91349e+07 -6.75539e+06 0)
(-1.79105e+07 -6.95206e+06 0)
(-1.67424e+07 -7.10429e+06 0)
(-1.56317e+07 -7.20805e+06 0)
(-1.45742e+07 -7.27017e+06 0)
(-1.35703e+07 -7.28634e+06 0)
(-1.26165e+07 -7.26257e+06 0)
(-1.17118e+07 -7.19434e+06 0)
(-1.08527e+07 -7.08733e+06 0)
(-1.0037e+07 -6.93756e+06 0)
(-9.26208e+06 -6.75059e+06 0)
(-8.5239e+06 -6.52348e+06 0)
(-7.82123e+06 -6.26204e+06 0)
(-7.14892e+06 -5.96433e+06 0)
(-6.50831e+06 -5.63565e+06 0)
(-5.89464e+06 -5.27333e+06 0)
(-5.31246e+06 -4.87832e+06 0)
(-4.7578e+06 -4.4428e+06 0)
(-4.23724e+06 -3.95974e+06 0)
(-3.74581e+06 -3.41489e+06 0)
(-3.28839e+06 -2.79307e+06 0)
(-2.85686e+06 -2.07386e+06 0)
(-2.45522e+06 -1.25971e+06 0)
(-2.07121e+06 -418754 0)
(-3.90534e+07 -536102 0)
(-3.69404e+07 -1.53981e+06 0)
(-3.49488e+07 -2.44818e+06 0)
(-3.29995e+07 -3.26767e+06 0)
(-3.11562e+07 -3.99694e+06 0)
(-2.93965e+07 -4.64805e+06 0)
(-2.77099e+07 -5.22026e+06 0)
(-2.60976e+07 -5.72471e+06 0)
(-2.45504e+07 -6.16068e+06 0)
(-2.30725e+07 -6.53761e+06 0)
(-2.16565e+07 -6.85508e+06 0)
(-2.03061e+07 -7.12081e+06 0)
(-1.90141e+07 -7.33357e+06 0)
(-1.77844e+07 -7.49977e+06 0)
(-1.66103e+07 -7.61791e+06 0)
(-1.54947e+07 -7.69287e+06 0)
(-1.44311e+07 -7.72287e+06 0)
(-1.34216e+07 -7.71164e+06 0)
(-1.24608e+07 -7.65744e+06 0)
(-1.15488e+07 -7.56328e+06 0)
(-1.06806e+07 -7.42774e+06 0)
(-9.85529e+06 -7.25334e+06 0)
(-9.06873e+06 -7.03977e+06 0)
(-8.3186e+06 -6.78961e+06 0)
(-7.60201e+06 -6.50352e+06 0)
(-6.91632e+06 -6.18422e+06 0)
(-6.26083e+06 -5.83238e+06 0)
(-5.63415e+06 -5.44905e+06 0)
(-5.03784e+06 -5.03124e+06 0)
(-4.47196e+06 -4.5742e+06 0)
(-3.93842e+06 -4.06829e+06 0)
(-3.43688e+06 -3.50182e+06 0)
(-2.96647e+06 -2.85884e+06 0)
(-2.52464e+06 -2.11972e+06 0)
(-2.10931e+06 -1.2858e+06 0)
(-1.71603e+06 -428577 0)
(-4.12061e+07 -558131 0)
(-3.89995e+07 -1.60946e+06 0)
(-3.69196e+07 -2.56507e+06 0)
(-3.48742e+07 -3.42928e+06 0)
(-3.29438e+07 -4.19864e+06 0)
(-3.10935e+07 -4.88624e+06 0)
(-2.93253e+07 -5.49011e+06 0)
(-2.76286e+07 -6.02334e+06 0)
(-2.60057e+07 -6.48385e+06 0)
(-2.44496e+07 -6.88334e+06 0)
(-2.29627e+07 -7.21973e+06 0)
(-2.15397e+07 -7.50342e+06 0)
(-2.0182e+07 -7.73123e+06 0)
(-1.88843e+07 -7.9124e+06 0)
(-1.76481e+07 -8.04317e+06 0)
(-1.64688e+07 -8.13153e+06 0)
(-1.53466e+07 -8.17319e+06 0)
(-1.42773e+07 -8.17496e+06 0)
(-1.32603e+07 -8.13222e+06 0)
(-1.22922e+07 -8.0513e+06 0)
(-1.13706e+07 -7.92761e+06 0)
(-1.04931e+07 -7.76663e+06 0)
(-9.65561e+06 -7.56461e+06 0)
(-8.85745e+06 -7.32713e+06 0)
(-8.0929e+06 -7.05137e+06 0)
(-7.36321e+06 -6.7429e+06 0)
(-6.66199e+06 -6.39978e+06 0)
(-5.99351e+06 -6.02653e+06 0)
(-5.35199e+06 -5.62028e+06 0)
(-4.74452e+06 -5.18096e+06 0)
(-4.16544e+06 -4.70115e+06 0)
(-3.62242e+06 -4.1735e+06 0)
(-3.10861e+06 -3.58506e+06 0)
(-2.62904e+06 -2.92132e+06 0)
(-2.17446e+06 -2.1624e+06 0)
(-1.75025e+06 -1.31231e+06 0)
(-1.347e+06 -436186 0)
(-4.344e+07 -577062 0)
(-4.11526e+07 -1.6761e+06 0)
(-3.89808e+07 -2.68178e+06 0)
(-3.68449e+07 -3.59373e+06 0)
(-3.48189e+07 -4.407e+06 0)
(-3.28812e+07 -5.13342e+06 0)
(-3.1022e+07 -5.77205e+06 0)
(-2.92432e+07 -6.33528e+06 0)
(-2.75355e+07 -6.82274e+06 0)
(-2.59033e+07 -7.24511e+06 0)
(-2.43377e+07 -7.60232e+06 0)
(-2.28433e+07 -7.90342e+06 0)
(-2.14125e+07 -8.14765e+06 0)
(-2.00487e+07 -8.34254e+06 0)
(-1.87442e+07 -8.48689e+06 0)
(-1.75022e+07 -8.58674e+06 0)
(-1.6316e+07 -8.64061e+06 0)
(-1.51875e+07 -8.65305e+06 0)
(-1.41105e+07 -8.62222e+06 0)
(-1.30857e+07 -8.55188e+06 0)
(-1.21081e+07 -8.4404e+06 0)
(-1.11766e+07 -8.29042e+06 0)
(-1.02872e+07 -8.10078e+06 0)
(-9.43765e+06 -7.874e+06 0)
(-8.62539e+06 -7.60986e+06 0)
(-7.84726e+06 -7.31096e+06 0)
(-7.10226e+06 -6.97774e+06 0)
(-6.38749e+06 -6.61281e+06 0)
(-5.70419e+06 -6.21613e+06 0)
(-5.05106e+06 -5.78847e+06 0)
(-4.43055e+06 -5.32618e+06 0)
(-3.8422e+06 -4.82487e+06 0)
(-3.28775e+06 -4.27476e+06 0)
(-2.76584e+06 -3.66549e+06 0)
(-2.27475e+06 -2.98171e+06 0)
(-1.81242e+06 -2.20399e+06 0)
(-1.37728e+06 -1.33489e+06 0)
(-969304 -444003 0)
(-4.57453e+07 -585713 0)
(-4.33893e+07 -1.73484e+06 0)
(-4.11386e+07 -2.79432e+06 0)
(-3.89073e+07 -3.7586e+06 0)
(-3.67911e+07 -4.61953e+06 0)
(-3.47571e+07 -5.38912e+06 0)
(-3.281e+07 -6.06486e+06 0)
(-3.09397e+07 -6.66135e+06 0)
(-2.91493e+07 -7.17683e+06 0)
(-2.74318e+07 -7.62455e+06 0)
(-2.57895e+07 -8.00273e+06 0)
(-2.4216e+07 -8.32317e+06 0)
(-2.27134e+07 -8.58304e+06 0)
(-2.1276e+07 -8.793e+06 0)
(-1.99047e+07 -8.94952e+06 0)
(-1.85941e+07 -9.0618e+06 0)
(-1.73447e+07 -9.12577e+06 0)
(-1.6152e+07 -9.1494e+06 0)
(-1.50152e+07 -9.12802e+06 0)
(-1.39303e+07 -9.06869e+06 0)
(-1.28953e+07 -8.96666e+06 0)
(-1.19079e+07 -8.82801e+06 0)
(-1.09639e+07 -8.64831e+06 0)
(-1.00627e+07 -8.43301e+06 0)
(-9.19846e+06 -8.17854e+06 0)
(-8.37302e+06 -7.89034e+06 0)
(-7.57902e+06 -7.5658e+06 0)
(-6.82078e+06 -7.21004e+06 0)
(-6.09063e+06 -6.82115e+06 0)
(-5.39591e+06 -6.40273e+06 0)
(-4.72942e+06 -5.95207e+06 0)
(-4.10012e+06 -5.46825e+06 0)
(-3.50083e+06 -4.94447e+06 0)
(-2.93944e+06 -4.37329e+06 0)
(-2.40727e+06 -3.74318e+06 0)
(-1.90952e+06 -3.03991e+06 0)
(-1.43696e+06 -2.24352e+06 0)
(-996516 -1.35813e+06 0)
(-582778 -450047 0)
(-4.80685e+07 -543402 0)
(-4.57063e+07 -1.77166e+06 0)
(-4.33841e+07 -2.8967e+06 0)
(-4.10691e+07 -3.91915e+06 0)
(-3.88567e+07 -4.8336e+06 0)
(-3.67312e+07 -5.65061e+06 0)
(-3.46868e+07 -6.36822e+06 0)
(-3.27279e+07 -7.00027e+06 0)
(-3.08454e+07 -7.54713e+06 0)
(-2.90446e+07 -8.0211e+06 0)
(-2.73165e+07 -8.42277e+06 0)
(-2.56658e+07 -8.76251e+06 0)
(-2.40835e+07 -9.03996e+06 0)
(-2.25738e+07 -9.26403e+06 0)
(-2.11286e+07 -9.43405e+06 0)
(-1.97506e+07 -9.55715e+06 0)
(-1.84322e+07 -9.63215e+06 0)
(-1.71756e+07 -9.6647e+06 0)
(-1.59744e+07 -9.65325e+06 0)
(-1.4829e+07 -9.60234e+06 0)
(-1.37338e+07 -9.51016e+06 0)
(-1.26883e+07 -9.38001e+06 0)
(-1.16885e+07 -9.21051e+06 0)
(-1.07321e+07 -9.00427e+06 0)
(-9.81651e+06 -8.76013e+06 0)
(-8.93858e+06 -8.48076e+06 0)
(-8.09763e+06 -8.16582e+06 0)
(-7.28991e+06 -7.81804e+06 0)
(-6.51654e+06 -7.43743e+06 0)
(-5.77459e+06 -7.02652e+06 0)
(-5.06675e+06 -6.58464e+06 0)
(-4.3915e+06 -6.11257e+06 0)
(-3.75186e+06 -5.60599e+06 0)
(-3.14652e+06 -5.06127e+06 0)
(-2.57616e+06 -4.46868e+06 0)
(-2.03879e+06 -3.81904e+06 0)
(-1.53199e+06 -3.09703e+06 0)
(-1.05493e+06 -2.28279e+06 0)
(-607092 -1.3785e+06 0)
(-192480 -456387 0)
(-4.9451e+07 -116125 4.18783e-14)
(-4.80802e+07 -1.73796e+06 0)
(-4.57221e+07 -2.97524e+06 0)
(-4.33239e+07 -4.06967e+06 0)
(-4.1025e+07 -5.04418e+06 0)
(-3.88005e+07 -5.91531e+06 0)
(-3.66631e+07 -6.67926e+06 0)
(-3.46057e+07 -7.3519e+06 0)
(-3.26337e+07 -7.93233e+06 0)
(-3.07401e+07 -8.43603e+06 0)
(-2.89282e+07 -8.86191e+06 0)
(-2.71912e+07 -9.22349e+06 0)
(-2.55311e+07 -9.51829e+06 0)
(-2.39413e+07 -9.75843e+06 0)
(-2.24231e+07 -9.94077e+06 0)
(-2.09708e+07 -1.0076e+07 0)
(-1.95844e+07 -1.01602e+07 0)
(-1.82585e+07 -1.02026e+07 0)
(-1.69925e+07 -1.01986e+07 0)
(-1.57826e+07 -1.01566e+07 0)
(-1.4626e+07 -1.00716e+07 0)
(-1.35204e+07 -9.95027e+06 0)
(-1.24617e+07 -9.7881e+06 0)
(-1.14497e+07 -9.59107e+06 0)
(-1.04782e+07 -9.35488e+06 0)
(-9.54924e+06 -9.08485e+06 0)
(-8.65518e+06 -8.7777e+06 0)
(-7.80095e+06 -8.43857e+06 0)
(-6.97762e+06 -8.06514e+06 0)
(-6.19284e+06 -7.6618e+06 0)
(-5.43746e+06 -7.22701e+06 0)
(-4.72128e+06 -6.76341e+06 0)
(-4.03593e+06 -6.26851e+06 0)
(-3.39111e+06 -5.74083e+06 0)
(-2.77798e+06 -5.17453e+06 0)
(-2.20384e+06 -4.56213e+06 0)
(-1.65901e+06 -3.89312e+06 0)
(-1.1486e+06 -3.15302e+06 0)
(-664540 -2.32098e+06 0)
(-214884 -1.39977e+06 0)
(202271 -461460 0)
(-5.06145e+07 497156 4.56153e-16)
(-4.97529e+07 -1.42497e+06 4.26321e-14)
(-4.81503e+07 -2.99227e+06 0)
(-4.56833e+07 -4.19956e+06 0)
(-4.32917e+07 -5.24719e+06 0)
(-4.09755e+07 -6.17833e+06 0)
(-3.87362e+07 -6.99566e+06 0)
(-3.6584e+07 -7.71338e+06 0)
(-3.45124e+07 -8.33256e+06 0)
(-3.25285e+07 -8.86798e+06 0)
(-3.06231e+07 -9.32158e+06 0)
(-2.88016e+07 -9.70555e+06 0)
(-2.70547e+07 -1.00203e+07 0)
(-2.53866e+07 -1.0276e+07 0)
(-2.37878e+07 -1.04727e+07 0)
(-2.22619e+07 -1.06187e+07 0)
(-2.08006e+07 -1.07134e+07 0)
(-1.9406e+07 -1.07636e+07 0)
(-1.80704e+07 -1.0768e+07 0)
(-1.67949e+07 -1.07323e+07 0)
(-1.55736e+07 -1.06548e+07 0)
(-1.44058e+07 -1.05396e+07 0)
(-1.3287e+07 -1.0385e+07 0)
(-1.22152e+07 -1.01943e+07 0)
(-1.11883e+07 -9.96605e+06 0)
(-1.02027e+07 -9.70305e+06 0)
(-9.25796e+06 -9.40401e+06 0)
(-8.35008e+06 -9.07182e+06 0)
(-7.48064e+06 -8.70591e+06 0)
(-6.64558e+06 -8.30911e+06 0)
(-5.84772e+06 -7.88104e+06 0)
(-5.08398e+06 -7.42432e+06 0)
(-4.35815e+06 -6.93739e+06 0)
(-3.66822e+06 -6.42144e+06 0)
(-3.01656e+06 -5.87174e+06 0)
(-2.40114e+06 -5.28558e+06 0)
(-1.821e+06 -4.65326e+06 0)
(-1.27417e+06 -3.96628e+06 0)
(-757691 -3.20869e+06 0)
(-272283 -2.35949e+06 0)
(181664 -1.41915e+06 0)
(596577 -466885 0)
(-5.20065e+07 781495 7.48312e-16)
(-5.07987e+07 -991603 4.3045e-16)
(-5.00729e+07 -2.76995e+06 0)
(-4.81576e+07 -4.28614e+06 0)
(-4.56729e+07 -5.43749e+06 0)
(-4.32542e+07 -6.43732e+06 0)
(-4.09181e+07 -7.31291e+06 0)
(-3.8661e+07 -8.08281e+06 0)
(-3.64927e+07 -8.745e+06 0)
(-3.44081e+07 -9.31739e+06 0)
(-3.24114e+07 -9.80048e+06 0)
(-3.04958e+07 -1.02104e+07 0)
(-2.86638e+07 -1.05453e+07 0)
(-2.69083e+07 -1.08194e+07 0)
(-2.52304e+07 -1.10296e+07 0)
(-2.36235e+07 -1.11883e+07 0)
(-2.20879e+07 -1.1292e+07 0)
(-2.06181e+07 -1.13514e+07 0)
(-1.92128e+07 -1.1362e+07 0)
(-1.78674e+07 -1.13333e+07 0)
(-1.65796e+07 -1.12607e+07 0)
(-1.53469e+07 -1.11518e+07 0)
(-1.41648e+07 -1.1002e+07 0)
(-1.30331e+07 -1.08178e+07 0)
(-1.19454e+07 -1.05946e+07 0)
(-1.09047e+07 -1.03385e+07 0)
(-9.90258e+06 -1.00454e+07 0)
(-8.9445e+06 -9.72023e+06 0)
(-8.02087e+06 -9.36022e+06 0)
(-7.14018e+06 -8.96996e+06 0)
(-6.29178e+06 -8.54768e+06 0)
(-5.48604e+06 -8.09699e+06 0)
(-4.71278e+06 -7.61655e+06 0)
(-3.983e+06 -7.1082e+06 0)
(-3.28705e+06 -6.57004e+06 0)
(-2.63419e+06 -6.00014e+06 0)
(-2.01444e+06 -5.39373e+06 0)
(-1.43374e+06 -4.74318e+06 0)
(-882525 -4.03836e+06 0)
(-365233 -3.26405e+06 0)
(124281 -2.39756e+06 0)
(576976 -1.4395e+06 0)
(991978 -471446 0)
(-5.35311e+07 702953 -4.5216e-14)
(-5.20191e+07 -808295 1.0677e-15)
(-5.10344e+07 -2.44036e+06 -1.70479e-15)
(-5.03508e+07 -4.14165e+06 1.09466e-15)
(-4.81832e+07 -5.60095e+06 0)
(-4.56545e+07 -6.69127e+06 0)
(-4.3208e+07 -7.63065e+06 0)
(-4.08492e+07 -8.45624e+06 0)
(-3.85731e+07 -9.16831e+06 0)
(-3.63901e+07 -9.78159e+06 0)
(-3.42916e+07 -1.02994e+07 0)
(-3.22839e+07 -1.07367e+07 0)
(-3.03571e+07 -1.10955e+07 0)
(-2.85157e+07 -1.13878e+07 0)
(-2.675e+07 -1.16144e+07 0)
(-2.50633e+07 -1.1785e+07 0)
(-2.34461e+07 -1.18996e+07 0)
(-2.19011e+07 -1.19663e+07 0)
(-2.04203e+07 -1.19843e+07 0)
(-1.90042e+07 -1.19605e+07 0)
(-1.76463e+07 -1.18934e+07 0)
(-1.6346e+07 -1.17881e+07 0)
(-1.50989e+07 -1.16432e+07 0)
(-1.39028e+07 -1.14626e+07 0)
(-1.27553e+07 -1.12446e+07 0)
(-1.16529e+07 -1.09925e+07 0)
(-1.0596e+07 -1.07049e+07 0)
(-9.57979e+06 -1.03846e+07 0)
(-8.60637e+06 -1.00304e+07 0)
(-7.67113e+06 -9.64518e+06 0)
(-6.77755e+06 -9.22828e+06 0)
(-5.92124e+06 -8.7828e+06 0)
(-5.10642e+06 -8.30754e+06 0)
(-4.32966e+06 -7.80546e+06 0)
(-3.59448e+06 -7.27432e+06 0)
(-2.89849e+06 -6.71585e+06 0)
(-2.24241e+06 -6.12509e+06 0)
(-1.62393e+06 -5.50023e+06 0)
(-1.04017e+06 -4.8314e+06 0)
(-489758 -4.11016e+06 0)
(31099.6 -3.31948e+06 0)
(518985 -2.43618e+06 0)
(973444 -1.45867e+06 0)
(1.38414e+06 -476327 0)
(-5.51554e+07 287567 -5.12957e-16)
(-5.33653e+07 -917652 -4.50533e-14)
(-5.21174e+07 -2.31408e+06 4.04642e-17)
(-5.12349e+07 -3.86671e+06 1.04028e-15)
(-5.07017e+07 -5.50338e+06 0)
(-4.81907e+07 -6.93418e+06 0)
(-4.56248e+07 -7.95212e+06 0)
(-4.3149e+07 -8.83489e+06 0)
(-4.07671e+07 -9.59912e+06 0)
(-3.84737e+07 -1.02598e+07 0)
(-3.62752e+07 -1.08157e+07 0)
(-3.41647e+07 -1.12856e+07 0)
(-3.21448e+07 -1.16694e+07 0)
(-3.02081e+07 -1.19836e+07 0)
(-2.83556e+07 -1.22263e+07 0)
(-2.65805e+07 -1.24114e+07 0)
(-2.48827e+07 -1.25359e+07 0)
(-2.32557e+07 -1.26119e+07 0)
(-2.16986e+07 -1.26354e+07 0)
(-2.02066e+07 -1.26175e+07 0)
(-1.87768e+07 -1.25536e+07 0)
(-1.74062e+07 -1.24525e+07 0)
(-1.60903e+07 -1.23097e+07 0)
(-1.48292e+07 -1.21327e+07 0)
(-1.36162e+07 -1.1917e+07 0)
(-1.24541e+07 -1.16688e+07 0)