/*--------------------------------*- C++ -*----------------------------------*\
  =========                 |
  \\      /  F ield         | OpenFOAM: The Open Source CFD Toolbox
   \\    /   O peration     | Website:  https://openfoam.org
    \\  /    A nd           | Version:  12
     \\/     M anipulation  |
\*---------------------------------------------------------------------------*/
FoamFile
{
    format      ascii;
    class       volScalarField;
    location    "0.1";
    object      p;
}
// * * * * * * * * * * * * * * * * * * * * * * * * * * * * * * * * * * * * * //

dimensions      [1 -1 -2 0 0 0 0];

internalField   nonuniform List<scalar> 
1000
(
1
1
1
1
1
1
1
1
1
1
1
1
1
1
1
1
1
1
1
1
1
1
1
1
1
1
1
1
1
1
1
1
1
1
1
1
1
1
1
1
1
1
1
1
1
1
1
1
1
1
1
1
1
1
1
1
1
1
1
1
1
1
1
1
1
1
1
1
1
1
1
1
1
1
1
1
1
1
1
1
1
1
1
1
1
1
1
1
1
1
1
1
1
1
1
1
1
1
1
1
1
1
1
1
1
1
1
1
1
1
1
1
1
1
1
1
1
1
1
1
1
1
1
1
1
1
1
1
1
1
1
1
1
1
1
1
1
1
1
1
1
1
1
1
1
1
1
1
1
1
1
1
1
1
1
1
1
1
1
1
1
1
1
1
1
1
1
1
1
1
1
1
1
1
1
1
1
1
1
1
1
1
1
1
1
1
1
1
1
1
1
1
1
1
1
1
1
1
1
1
1
1
1
1
1
1
1
1
1
1
1
1
1
1
1
1
1
1
1
1
1
1
1
1
1
1
1
1
1
1
1
1
1
1
1
1
1
1
1
1
1
1
1
1
1
1
1
1
1
1
1
1
1
1
1
1
1
1
1
1
1
1
1
1
1
1
1
1
1
1
1
1
1
1
1
1
1
1
1
1
1
1
1
1
1
1
1
1
1
1
1
1
1
1
1
1
1
1
1
1
1
1
1
1
1
1
1
1
1
1
1
1
1
1
1
1
1
1
1
1
1
1
1
1
1
1
1
1
1
1
1
1
1
1
1
1
1
1
1
1
1
1
1
1
1
1
1
1
1
1
1
1
1
1
1
1
1
1
1
1
1
1
1
1
1
1
1
0.999999
0.999987
0.999919
0.999717
0.999293
0.998559
0.997432
0.995838
0.993727
0.991065
0.987842
0.984066
0.97976
0.974958
0.969701
0.964034
0.958002
0.95165
0.94502
0.938151
0.931078
0.923834
0.916446
0.908941
0.90134
0.893663
0.885926
0.878144
0.87033
0.862495
0.854648
0.846799
0.838955
0.831121
0.823304
0.815509
0.807739
0.799999
0.792291
0.784619
0.776985
0.769391
0.76184
0.754332
0.74687
0.739454
0.732086
0.724767
0.717497
0.710278
0.70311
0.695993
0.688928
0.681915
0.674955
0.668048
0.661194
0.654393
0.647645
0.640951
0.63431
0.627723
0.621189
0.614708
0.608281
0.601907
0.595586
0.589318
0.583102
0.576939
0.570829
0.564771
0.558765
0.55281
0.546907
0.541056
0.535255
0.529505
0.523806
0.518157
0.512558
0.507009
0.50151
0.496059
0.490658
0.485305
0.48
0.474743
0.469534
0.464373
0.459259
0.454191
0.44917
0.444196
0.439267
0.434384
0.429547
0.424754
0.420007
0.415304
0.410645
0.40603
0.40146
0.396932
0.392448
0.388007
0.383608
0.379252
0.374938
0.370667
0.366437
0.362248
0.358101
0.353994
0.349929
0.345904
0.34192
0.337977
0.334073
0.33021
0.326387
0.322605
0.318868
0.315187
0.311595
0.308182
0.305147
0.302823
0.301529
0.301164
0.301284
0.301899
0.302161
0.302198
0.302193
0.302194
0.302235
0.302288
0.302336
0.302382
0.302423
0.30246
0.302492
0.302518
0.30254
0.302558
0.302574
0.302588
0.3026
0.30261
0.302618
0.302623
0.302628
0.302633
0.302637
0.302642
0.302646
0.30265
0.302654
0.302658
0.302661
0.302665
0.302668
0.302671
0.302674
0.302676
0.302679
0.302681
0.302684
0.302686
0.302688
0.30269
0.302692
0.302694
0.302695
0.302697
0.302698
0.302699
0.302701
0.302702
0.302704
0.302705
0.302705
0.302706
0.302706
0.302707
0.302707
0.302708
0.302708
0.302709
0.302709
0.302709
0.30271
0.30271
0.30271
0.30271
0.302711
0.302711
0.302711
0.302711
0.302711
0.302711
0.302711
0.302711
0.302711
0.302711
0.302711
0.302711
0.302711
0.302711
0.302711
0.302711
0.302711
0.302711
0.302712
0.302712
0.302714
0.302716
0.30272
0.302727
0.302737
0.302751
0.302768
0.302789
0.30281
0.302828
0.302839
0.30284
0.302829
0.302809
0.302784
0.302758
0.302738
0.302725
0.302718
0.302716
0.302715
0.302715
0.302715
0.302715
0.302715
0.302715
0.302715
0.302715
0.302715
0.302715
0.302715
0.302715
0.302715
0.302715
0.302715
0.302715
0.302715
0.302715
0.302716
0.302716
0.302716
0.302716
0.302716
0.302716
0.302716
0.302716
0.302716
0.302716
0.302716
0.302716
0.302716
0.302716
0.302716
0.302715
0.302715
0.302715
0.302715
0.302715
0.302715
0.302715
0.302715
0.302715
0.302715
0.302715
0.302715
0.302715
0.302715
0.302715
0.302715
0.302715
0.302715
0.302714
0.302715
0.302713
0.302714
0.302711
0.302713
0.302704
0.302708
0.302683
0.302688
0.302619
0.302604
0.302401
0.302274
0.301585
0.300984
0.298566
0.295956
0.287665
0.276295
0.248101
0.200033
0.132929
0.102641
0.100023
0.1
0.1
0.1
0.1
0.1
0.1
0.1
0.1
0.1
0.1
0.1
0.1
0.1
0.1
0.1
0.1
0.1
0.1
0.1
0.1
0.1
0.1
0.1
0.1
0.1
0.1
0.1
0.1
0.1
0.1
0.1
0.1
0.1
0.1
0.1
0.1
0.1
0.1
0.1
0.1
0.1
0.1
0.1
0.1
0.1
0.1
0.1
0.1
0.1
0.1
0.1
0.1
0.1
0.1
0.1
0.1
0.1
0.1
0.1
0.1
0.1
0.1
0.1
0.1
0.1
0.1
0.1
0.1
0.1
0.1
0.1
0.1
0.1
0.1
0.1
0.1
0.1
0.1
0.1
0.1
0.1
0.1
0.1
0.1
0.1
0.1
0.1
0.1
0.1
0.1
0.1
0.1
0.1
0.1
0.1
0.1
0.1
0.1
0.1
0.1
0.1
0.1
0.1
0.1
0.1
0.1
0.1
0.1
0.1
0.1
0.1
0.1
0.1
0.1
0.1
0.1
0.1
0.1
0.1
0.1
0.1
0.1
0.1
0.1
0.1
0.1
0.1
0.1
0.1
0.1
0.1
0.1
0.1
0.1
0.1
0.1
0.1
0.1
0.1
0.1
0.1
0.1
0.1
0.1
0.1
0.1
0.1
0.1
0.1
0.1
0.1
0.1
0.1
0.1
0.1
0.1
0.1
0.1
0.1
0.1
0.1
0.1
0.1
0.1
0.1
0.1
0.1
0.1
0.1
0.1
0.1
0.1
0.1
0.1
0.1
0.1
0.1
0.1
0.1
0.1
0.1
0.1
0.1
0.1
0.1
0.1
0.1
0.1
0.1
0.1
0.1
0.1
0.1
0.1
0.1
0.1
0.1
0.1
0.1
0.1
0.1
0.1
0.1
0.1
0.1
0.1
0.1
0.1
0.1
0.1
0.1
0.1
0.1
0.1
0.1
0.1
0.1
0.1
0.1
0.1
0.1
0.1
0.1
0.1
0.1
0.1
0.1
0.1
0.1
0.1
0.1
0.1
0.1
0.1
0.1
0.1
0.1
0.1
0.1
0.1
0.1
0.1
0.1
0.1
0.1
0.1
0.1
0.1
0.1
0.1
0.1
0.1
0.1
0.1
0.1
0.1
0.1
0.1
0.1
0.1
0.1
0.1
0.1
0.1
0.1
0.1
0.1
0.1
0.1
0.1
0.1
0.1
0.1
0.1
0.1
0.1
0.1
0.1
0.1
0.1
0.1
0.1
0.1
0.1
0.1
0.1
0.1
0.1
0.1
0.1
0.1
0.1
0.1
0.1
0.1
0.1
0.1
0.1
0.1
0.1
0.1
0.1
0.1
0.1
0.1
0.1
0.1
0.1
0.1
0.1
0.1
0.1
0.1
0.1
0.1
0.1
0.1
0.1
0.1
0.1
0.1
)
;

boundaryField
{
    sides
    {
        type            zeroGradient;
    }
    empty
    {
        type            empty;
    }
}


// ************************************************************************* //
