/*--------------------------------*- C++ -*----------------------------------*\
  =========                 |
  \\      /  F ield         | OpenFOAM: The Open Source CFD Toolbox
   \\    /   O peration     | Website:  https://openfoam.org
    \\  /    A nd           | Version:  12
     \\/     M anipulation  |
\*---------------------------------------------------------------------------*/
FoamFile
{
    format      ascii;
    class       surfaceScalarField;
    location    "0.1";
    object      phi;
}
// * * * * * * * * * * * * * * * * * * * * * * * * * * * * * * * * * * * * * //

dimensions      [1 0 -1 0 0 0 0];

internalField   nonuniform List<scalar> 
999
(
-4.24958e-10
-4.26984e-10
-4.37231e-10
-4.301e-10
-4.28439e-10
-4.43957e-10
-4.34212e-10
-4.21635e-10
-3.91212e-10
-3.49403e-10
-3.0894e-10
-2.8184e-10
-2.58542e-10
-2.35184e-10
-2.32401e-10
-2.18019e-10
-1.93292e-10
-1.83899e-10
-1.82459e-10
-1.99779e-10
-2.25351e-10
-2.29736e-10
-2.19412e-10
-1.9744e-10
-1.82732e-10
-1.91955e-10
-2.24841e-10
-2.564e-10
-2.89842e-10
-3.32199e-10
-3.77838e-10
-4.00206e-10
-4.16897e-10
-4.49901e-10
-4.82634e-10
-4.80507e-10
-4.00997e-10
-2.92989e-10
-2.31564e-10
-2.34711e-10
-2.73925e-10
-2.98474e-10
-3.19349e-10
-3.2661e-10
-3.39512e-10
-3.93023e-10
-4.45345e-10
-4.63995e-10
-4.61282e-10
-4.519e-10
-4.43501e-10
-4.38279e-10
-4.2938e-10
-4.26885e-10
-4.2539e-10
-4.17249e-10
-4.26855e-10
-4.32752e-10
-4.17546e-10
-4.11231e-10
-4.354e-10
-4.48453e-10
-4.44879e-10
-4.41634e-10
-4.54872e-10
-4.84685e-10
-5.08341e-10
-5.18697e-10
-5.12003e-10
-5.21406e-10
-5.36531e-10
-5.37062e-10
-5.39767e-10
-5.43409e-10
-5.26817e-10
-4.83058e-10
-4.63732e-10
-4.53659e-10
-4.51638e-10
-4.56107e-10
-4.43073e-10
-4.31439e-10
-4.36963e-10
-4.60981e-10
-4.87161e-10
-5.25886e-10
-5.36109e-10
-5.09467e-10
-4.98304e-10
-5.03659e-10
-5.0803e-10
-4.91884e-10
-4.36571e-10
-4.17597e-10
-4.01891e-10
-3.68795e-10
-3.75798e-10
-3.94423e-10
-3.82187e-10
-3.39871e-10
-2.81689e-10
-2.54254e-10
-2.12252e-10
-1.60796e-10
-1.31263e-10
-8.93718e-11
-4.24591e-11
-1.35053e-11
4.722e-12
2.17154e-11
3.83873e-11
3.11333e-11
2.67246e-11
3.96024e-11
9.652e-11
1.77363e-10
2.0631e-10
1.97846e-10
1.89941e-10
1.92242e-10
1.9909e-10
1.85333e-10
1.85969e-10
2.05339e-10
2.09294e-10
2.16211e-10
2.35257e-10
2.49426e-10
2.40244e-10
2.30085e-10
2.53619e-10
2.65169e-10
2.76527e-10
2.90389e-10
2.70763e-10
2.3223e-10
1.71722e-10
1.39271e-10
1.16292e-10
6.27054e-11
4.61359e-11
5.30224e-11
6.07545e-11
4.77495e-11
4.28556e-11
2.14091e-11
4.47975e-13
-1.71748e-11
-3.22862e-11
-3.85614e-11
-4.8851e-11
-6.12385e-11
-5.63433e-11
-5.22239e-11
-3.68697e-11
-2.24536e-11
-1.63052e-11
-1.80246e-11
9.12381e-13
1.93567e-12
-1.4901e-11
-3.17414e-11
-5.73721e-11
-7.85607e-11
-9.33144e-11
-1.21704e-10
-1.30099e-10
-1.31798e-10
-1.51489e-10
-2.11229e-10
-2.66416e-10
-2.67411e-10
-2.49794e-10
-2.47324e-10
-2.48358e-10
-2.22667e-10
-1.86333e-10
-1.56077e-10
-1.09171e-10
-8.57764e-11
-7.05312e-11
-4.52663e-11
-3.85169e-11
-2.99016e-11
-8.58869e-12
4.85543e-11
7.28519e-11
8.93953e-11
1.09338e-10
1.27957e-10
1.36021e-10
1.32762e-10
1.42317e-10
1.76295e-10
2.09716e-10
2.15619e-10
2.19673e-10
2.40222e-10
2.53109e-10
2.63189e-10
2.91655e-10
3.50653e-10
3.61818e-10
3.28715e-10
3.19336e-10
3.31578e-10
3.50137e-10
3.31806e-10
2.82812e-10
2.80971e-10
2.93848e-10
2.93415e-10
2.65394e-10
2.54484e-10
2.54365e-10
2.47769e-10
2.48119e-10
2.9518e-10
3.43435e-10
3.54449e-10
3.37501e-10
3.29138e-10
3.30029e-10
3.39722e-10
3.55751e-10
3.43072e-10
2.8661e-10
2.44374e-10
2.18649e-10
1.75887e-10
1.50612e-10
1.59513e-10
1.58054e-10
1.37004e-10
1.3924e-10
1.85479e-10
2.39646e-10
2.87492e-10
2.83128e-10
2.12301e-10
1.39609e-10
1.06773e-10
1.2595e-10
1.49349e-10
1.54267e-10
1.59496e-10
1.56318e-10
1.51791e-10
1.71155e-10
1.91161e-10
1.83455e-10
1.71319e-10
1.46608e-10
1.31525e-10
1.28917e-10
1.58893e-10
2.08847e-10
2.44979e-10
2.93259e-10
3.47263e-10
3.92201e-10
4.18344e-10
4.19663e-10
4.04694e-10
4.08279e-10
4.23595e-10
4.27349e-10
4.52365e-10
4.72605e-10
4.78305e-10
4.8264e-10
5.02877e-10
5.10004e-10
5.09926e-10
5.1828e-10
5.19155e-10
5.13353e-10
4.97687e-10
4.6801e-10
4.26421e-10
4.22335e-10
4.21087e-10
3.96364e-10
3.57936e-10
3.42161e-10
3.62749e-10
3.83986e-10
3.99119e-10
4.18096e-10
4.377e-10
4.43592e-10
4.18588e-10
3.75096e-10
3.38329e-10
3.32646e-10
3.29113e-10
2.97315e-10
2.51138e-10
2.33306e-10
2.09492e-10
1.95124e-10
2.0053e-10
2.1162e-10
2.09384e-10
2.00016e-10
1.70011e-10
1.62984e-10
1.72365e-10
1.87015e-10
1.78248e-10
1.74431e-10
1.71204e-10
1.47251e-10
1.3526e-10
1.58407e-10
2.05049e-10
2.23369e-10
2.44619e-10
2.49196e-10
2.31318e-10
2.04226e-10
2.15612e-10
2.03779e-10
1.62062e-10
1.28153e-10
8.8262e-11
7.26148e-11
8.59081e-11
7.15773e-11
6.25895e-11
8.60335e-11
8.78871e-11
9.72012e-11
1.42724e-10
1.66865e-10
1.70209e-10
1.55293e-10
1.32962e-10
1.2233e-10
1.54875e-10
2.23577e-10
2.42601e-10
2.36553e-10
2.49329e-10
3.15946e-10
3.56153e-10
3.59727e-10
3.48993e-10
3.39296e-10
3.27851e-10
2.78081e-10
2.32495e-10
2.09895e-10
2.19368e-10
2.19364e-10
2.2457e-10
2.51687e-10
2.62891e-10
2.55907e-10
2.19411e-10
1.9974e-10
1.6159e-10
7.21642e-11
2.66605e-11
2.57542e-11
1.80839e-10
4.48435e-08
2.00061e-06
2.35726e-05
0.000118362
0.000361947
0.000831464
0.00160122
0.00273808
0.00429499
0.00630686
0.00878941
0.0117405
0.0151433
0.0189693
0.0231829
0.0277439
0.0326107
0.0377422
0.0430989
0.0486442
0.0543446
0.0601701
0.0660937
0.0720919
0.0781439
0.0842315
0.0903391
0.0964528
0.102561
0.108653
0.114721
0.120756
0.126752
0.132704
0.138606
0.144455
0.150246
0.155976
0.161644
0.167245
0.17278
0.178245
0.183639
0.188962
0.194213
0.199389
0.204492
0.209519
0.214472
0.219349
0.22415
0.228876
0.233526
0.2381
0.242598
0.247021
0.251368
0.25564
0.259837
0.26396
0.268008
0.271982
0.275883
0.27971
0.283465
0.287147
0.290758
0.294297
0.297765
0.301163
0.304491
0.30775
0.31094
0.314061
0.317115
0.320102
0.323022
0.325875
0.328664
0.331387
0.334046
0.336641
0.339172
0.341641
0.344048
0.346393
0.348678
0.350902
0.353066
0.35517
0.357216
0.359204
0.361135
0.363008
0.364825
0.366586
0.368292
0.369943
0.37154
0.373083
0.374574
0.376012
0.377397
0.378732
0.380015
0.381249
0.382432
0.383566
0.384652
0.38569
0.38668
0.387622
0.388519
0.389369
0.390174
0.390934
0.39165
0.392322
0.392951
0.393537
0.39408
0.394582
0.395043
0.395463
0.39584
0.396174
0.396454
0.396668
0.396796
0.396837
0.396834
0.396797
0.396769
0.396765
0.396763
0.396761
0.396757
0.396751
0.396745
0.39674
0.396737
0.396733
0.39673
0.396726
0.396723
0.39672
0.396717
0.396715
0.396713
0.39671
0.396708
0.396705
0.396702
0.396699
0.396696
0.396693
0.396691
0.396688
0.396685
0.396682
0.396679
0.396676
0.396673
0.39667
0.396667
0.396664
0.39666
0.396657
0.396654
0.396651
0.396647
0.396644
0.39664
0.396636
0.396632
0.396628
0.396624
0.396619
0.396614
0.396609
0.396603
0.396598
0.396592
0.396586
0.39658
0.396574
0.396567
0.39656
0.396553
0.396545
0.396536
0.396527
0.396517
0.396507
0.396496
0.396485
0.396473
0.396461
0.396447
0.396433
0.396417
0.3964
0.396381
0.39636
0.396337
0.396308
0.396273
0.396227
0.396162
0.396066
0.395919
0.395692
0.395341
0.3948
0.39398
0.392761
0.390994
0.388498
0.385073
0.380511
0.374628
0.367288
0.358442
0.34816
0.336646
0.324244
0.311414
0.298689
0.286621
0.275716
0.266375
0.258853
0.253234
0.249422
0.247162
0.246074
0.245711
0.245652
0.245651
0.245658
0.24568
0.24572
0.245769
0.245817
0.245858
0.245889
0.245909
0.245923
0.245933
0.245942
0.24595
0.245958
0.245966
0.245974
0.245981
0.245987
0.245991
0.245995
0.245997
0.245999
0.246001
0.246001
0.246002
0.246002
0.246003
0.246003
0.246003
0.246003
0.246003
0.246003
0.246003
0.246003
0.246004
0.246004
0.246004
0.246004
0.246004
0.246004
0.246003
0.246003
0.246003
0.246003
0.246003
0.246003
0.246002
0.246002
0.246002
0.246002
0.246001
0.246001
0.246
0.246
0.245997
0.245996
0.245989
0.245983
0.245962
0.245938
0.245873
0.245778
0.245538
0.245169
0.24427
0.242831
0.239537
0.233916
0.222079
0.199748
0.15469
0.0729235
0.00879131
9.78041e-05
5.74498e-08
-1.22597e-11
-1.18532e-11
-8.2187e-12
-5.40985e-12
-3.67363e-12
1.34125e-12
8.71767e-12
9.92463e-12
1.02442e-11
1.26965e-11
1.30821e-11
1.48374e-11
1.83028e-11
1.92693e-11
1.99472e-11
1.54176e-11
1.17233e-11
1.02703e-11
6.08021e-12
5.02598e-13
-3.33511e-13
4.71748e-13
-4.88319e-12
-8.20878e-12
-6.62317e-12
-4.027e-12
-6.19158e-13
7.04461e-12
9.95444e-12
9.75299e-12
9.88559e-12
1.20311e-11
1.28084e-11
1.13354e-11
1.01905e-11
1.11229e-11
1.37292e-11
1.72813e-11
1.71734e-11
1.65012e-11
1.80213e-11
1.86813e-11
1.72201e-11
1.58778e-11
1.6956e-11
1.49487e-11
9.01902e-12
7.90489e-12
5.48225e-12
3.05919e-12
1.00098e-12
-3.06515e-12
-5.15071e-12
-4.04893e-12
-2.97505e-12
-3.03377e-12
-3.82495e-12
-5.81919e-12
-7.31763e-12
-7.71887e-12
-6.85202e-12
-6.44693e-12
-2.49527e-12
3.80297e-12
1.20427e-11
2.16185e-11
2.51843e-11
2.74017e-11
2.66651e-11
1.93183e-11
1.6755e-11
1.65792e-11
1.93379e-11
2.32945e-11
2.15424e-11
1.91385e-11
2.1517e-11
2.64648e-11
2.74177e-11
2.56563e-11
2.52563e-11
2.34105e-11
1.71616e-11
1.3383e-11
1.68728e-11
2.06652e-11
2.17677e-11
2.10828e-11
1.94224e-11
1.17269e-11
6.45296e-12
6.70748e-12
6.29631e-12
4.68917e-12
4.77862e-12
7.0115e-12
9.77944e-12
1.48717e-11
1.60785e-11
1.22842e-11
8.06563e-12
2.70656e-12
-9.23012e-13
-2.64067e-12
-3.05551e-12
-1.6085e-12
2.13428e-12
6.89714e-12
7.60499e-12
2.95741e-12
9.05429e-13
8.86166e-13
-3.87561e-12
-7.89979e-12
-9.12505e-12
-1.22787e-11
-1.3828e-11
-1.43099e-11
-1.76052e-11
-2.31074e-11
-2.58248e-11
-2.64825e-11
-2.8276e-11
-3.06264e-11
-2.91817e-11
-2.27022e-11
-1.60234e-11
-1.24429e-11
-1.12692e-11
-1.07771e-11
-1.1947e-11
-1.65476e-11
-2.1832e-11
-2.39149e-11
-2.23317e-11
-1.84604e-11
-1.69853e-11
-1.76666e-11
-1.72897e-11
-1.31894e-11
-1.18811e-11
-1.25329e-11
-1.29172e-11
-1.36632e-11
-1.57915e-11
-1.58736e-11
-1.51483e-11
-1.68768e-11
-1.66862e-11
-1.43782e-11
-1.19246e-11
-1.1589e-11
-1.18212e-11
-1.12044e-11
-1.15603e-11
-1.31379e-11
-1.05509e-11
-5.35247e-12
-3.04134e-12
-1.37255e-12
1.61229e-12
5.83783e-13
-6.0864e-12
-9.33327e-12
-7.94767e-12
-5.59011e-12
-6.23712e-12
-9.19738e-12
-1.17377e-11
-1.16912e-11
-1.2932e-11
-1.19142e-11
-9.85956e-12
-7.66837e-12
-2.92974e-12
1.99354e-13
1.7198e-12
5.17635e-12
6.50496e-12
6.32056e-12
5.42266e-12
3.44777e-12
9.39526e-13
-2.77202e-12
-4.31431e-12
-2.34303e-12
-9.90111e-13
-2.02256e-12
-2.16366e-12
-1.18591e-12
-4.63013e-12
-1.00293e-11
-1.13146e-11
-8.02992e-12
-7.41436e-12
-7.01915e-12
-1.11813e-12
3.68902e-12
5.88864e-12
6.13246e-12
2.81837e-12
1.61829e-13
-2.52631e-13
3.51343e-12
9.19852e-12
1.19981e-11
1.23614e-11
1.1901e-11
1.2823e-11
1.45657e-11
1.53624e-11
1.15567e-11
7.22382e-12
9.34237e-12
1.10403e-11
9.53015e-12
9.9762e-12
1.4598e-11
1.51908e-11
1.06026e-11
5.20969e-12
2.36215e-12
1.05002e-12
6.55587e-14
-1.4118e-12
-3.08822e-12
-6.2931e-12
-1.01464e-11
-1.15763e-11
-1.0936e-11
-3.64049e-12
2.56087e-12
8.61949e-13
-2.12423e-12
-1.52063e-12
2.47623e-12
5.09406e-12
7.42789e-12
1.2738e-11
1.55079e-11
1.65793e-11
1.92162e-11
2.43986e-11
2.52645e-11
2.64569e-11
3.2786e-11
3.47532e-11
3.47372e-11
3.38275e-11
3.40023e-11
3.43649e-11
3.26655e-11
3.31575e-11
3.58254e-11
3.51267e-11
3.87622e-11
4.45994e-11
4.55329e-11
4.72344e-11
4.7242e-11
4.74722e-11
4.96028e-11
5.41868e-11
5.67038e-11
5.84269e-11
6.04747e-11
6.20046e-11
5.8529e-11
5.45218e-11
5.67512e-11
5.67522e-11
5.79487e-11
6.57698e-11
6.81435e-11
6.29999e-11
5.62791e-11
5.46615e-11
5.51534e-11
5.10763e-11
4.1454e-11
3.78464e-11
3.89702e-11
4.08014e-11
4.11106e-11
3.89511e-11
3.74304e-11
3.78009e-11
3.59874e-11
3.33021e-11
3.49009e-11
4.25455e-11
4.51609e-11
4.26888e-11
4.20831e-11
4.22456e-11
4.05055e-11
3.7193e-11
3.8254e-11
4.04527e-11
4.11855e-11
3.97919e-11
3.99325e-11
4.11825e-11
3.82145e-11
3.20385e-11
3.20347e-11
3.7169e-11
4.15016e-11
4.20979e-11
3.96741e-11
4.01816e-11
4.48498e-11
4.5787e-11
4.4034e-11
4.42283e-11
4.70055e-11
4.9443e-11
5.5766e-11
6.07811e-11
6.0949e-11
)
;

boundaryField
{
    sides
    {
        type            calculated;
        value           nonuniform List<scalar> 2(5.98393e-11 4.31095e-10);
    }
    empty
    {
        type            empty;
    }
}


// ************************************************************************* //
