/*--------------------------------*- C++ -*----------------------------------*\
  =========                 |
  \\      /  F ield         | OpenFOAM: The Open Source CFD Toolbox
   \\    /   O peration     | Website:  https://openfoam.org
    \\  /    A nd           | Version:  12
     \\/     M anipulation  |
\*---------------------------------------------------------------------------*/
FoamFile
{
    format      ascii;
    class       volScalarField;
    location    "0.1";
    object      rho;
}
// * * * * * * * * * * * * * * * * * * * * * * * * * * * * * * * * * * * * * //

dimensions      [1 -3 0 0 0 0 0];

internalField   nonuniform List<scalar> 
1000
(
1.00725
1.00725
1.00725
1.00725
1.00725
1.00725
1.00725
1.00725
1.00725
1.00725
1.00725
1.00725
1.00725
1.00725
1.00725
1.00725
1.00725
1.00725
1.00725
1.00725
1.00725
1.00725
1.00725
1.00725
1.00725
1.00725
1.00725
1.00725
1.00725
1.00725
1.00725
1.00725
1.00725
1.00725
1.00725
1.00725
1.00725
1.00725
1.00725
1.00725
1.00725
1.00725
1.00725
1.00725
1.00725
1.00725
1.00725
1.00725
1.00725
1.00725
1.00725
1.00725
1.00725
1.00725
1.00725
1.00725
1.00725
1.00725
1.00725
1.00725
1.00725
1.00725
1.00725
1.00725
1.00725
1.00725
1.00725
1.00725
1.00725
1.00725
1.00725
1.00725
1.00725
1.00725
1.00725
1.00725
1.00725
1.00725
1.00725
1.00725
1.00725
1.00725
1.00725
1.00725
1.00725
1.00725
1.00725
1.00725
1.00725
1.00725
1.00725
1.00725
1.00725
1.00725
1.00725
1.00725
1.00725
1.00725
1.00725
1.00725
1.00725
1.00725
1.00725
1.00725
1.00725
1.00725
1.00725
1.00725
1.00725
1.00725
1.00725
1.00725
1.00725
1.00725
1.00725
1.00725
1.00725
1.00725
1.00725
1.00725
1.00725
1.00725
1.00725
1.00725
1.00725
1.00725
1.00725
1.00725
1.00725
1.00725
1.00725
1.00725
1.00725
1.00725
1.00725
1.00725
1.00725
1.00725
1.00725
1.00725
1.00725
1.00725
1.00725
1.00725
1.00725
1.00725
1.00725
1.00725
1.00725
1.00725
1.00725
1.00725
1.00725
1.00725
1.00725
1.00725
1.00725
1.00725
1.00725
1.00725
1.00725
1.00725
1.00725
1.00725
1.00725
1.00725
1.00725
1.00725
1.00725
1.00725
1.00725
1.00725
1.00725
1.00725
1.00725
1.00725
1.00725
1.00725
1.00725
1.00725
1.00725
1.00725
1.00725
1.00725
1.00725
1.00725
1.00725
1.00725
1.00725
1.00725
1.00725
1.00725
1.00725
1.00725
1.00725
1.00725
1.00725
1.00725
1.00725
1.00725
1.00725
1.00725
1.00725
1.00725
1.00725
1.00725
1.00725
1.00725
1.00725
1.00725
1.00725
1.00725
1.00725
1.00725
1.00725
1.00725
1.00725
1.00725
1.00725
1.00725
1.00725
1.00725
1.00725
1.00725
1.00725
1.00725
1.00725
1.00725
1.00725
1.00725
1.00725
1.00725
1.00725
1.00725
1.00725
1.00725
1.00725
1.00725
1.00725
1.00725
1.00725
1.00725
1.00725
1.00725
1.00725
1.00725
1.00725
1.00725
1.00725
1.00725
1.00725
1.00725
1.00725
1.00725
1.00725
1.00725
1.00725
1.00725
1.00725
1.00725
1.00725
1.00725
1.00725
1.00725
1.00725
1.00725
1.00725
1.00725
1.00725
1.00725
1.00725
1.00725
1.00725
1.00725
1.00725
1.00725
1.00725
1.00725
1.00725
1.00725
1.00725
1.00725
1.00725
1.00725
1.00725
1.00725
1.00725
1.00725
1.00725
1.00725
1.00725
1.00725
1.00725
1.00725
1.00725
1.00725
1.00725
1.00725
1.00725
1.00725
1.00725
1.00725
1.00725
1.00725
1.00725
1.00725
1.00725
1.00725
1.00725
1.00725
1.00725
1.00725
1.00725
1.00725
1.00725
1.00725
1.00725
1.00725
1.00725
1.00725
1.00725
1.00725
1.00725
1.00725
1.00725
1.00725
1.00725
1.00725
1.00725
1.00725
1.00725
1.00725
1.00725
1.00725
1.00725
1.00725
1.00725
1.00725
1.00725
1.00725
1.00725
1.00725
1.00725
1.00725
1.00725
1.00725
1.00725
1.00725
1.00725
1.00725
1.00725
1.00725
1.00725
1.00725
1.00725
1.00725
1.00725
1.00725
1.00725
1.00725
1.00725
1.00725
1.00725
1.00725
1.00725
1.00725
1.00725
1.00725
1.00724
1.0072
1.00705
1.00675
1.00622
1.00541
1.00426
1.00274
1.00082
0.998492
0.995764
0.992649
0.989171
0.985358
0.98124
0.97685
0.972218
0.967374
0.962344
0.957155
0.951828
0.946384
0.940839
0.935211
0.929512
0.923755
0.91795
0.912106
0.906231
0.900333
0.894417
0.888489
0.882553
0.876614
0.870675
0.86474
0.85881
0.85289
0.846981
0.841084
0.835203
0.829337
0.823489
0.81766
0.811851
0.806063
0.800297
0.794553
0.788832
0.783136
0.777464
0.771817
0.766195
0.760599
0.75503
0.749487
0.74397
0.738481
0.733019
0.727585
0.722178
0.7168
0.711449
0.706126
0.700831
0.695565
0.690327
0.685117
0.679935
0.674783
0.669658
0.664562
0.659495
0.654456
0.649445
0.644463
0.639509
0.634584
0.629687
0.624818
0.619978
0.615166
0.610382
0.605626
0.600898
0.596198
0.591526
0.586882
0.582265
0.577677
0.573116
0.568582
0.564076
0.559597
0.555146
0.550722
0.546326
0.541956
0.537613
0.533298
0.52901
0.524748
0.520513
0.516305
0.512124
0.50797
0.503842
0.499741
0.495667
0.491619
0.487598
0.483603
0.479635
0.475693
0.471778
0.467889
0.464027
0.460192
0.456384
0.452603
0.44885
0.445129
0.441451
0.437851
0.43442
0.431357
0.429008
0.427697
0.427323
0.427444
0.428063
0.428338
0.428368
0.42836
0.428359
0.428398
0.42845
0.428497
0.428541
0.428582
0.428618
0.428648
0.428673
0.428693
0.42871
0.428724
0.428737
0.428749
0.428757
0.428762
0.428765
0.428767
0.428769
0.428771
0.428772
0.428774
0.428775
0.428776
0.428777
0.428778
0.428778
0.428778
0.428778
0.428778
0.428778
0.428777
0.428776
0.428776
0.428774
0.428773
0.428771
0.428769
0.428767
0.428764
0.42876
0.428757
0.428753
0.428749
0.428744
0.42874
0.428735
0.428729
0.428724
0.428718
0.428711
0.428705
0.428697
0.428689
0.42868
0.428671
0.428661
0.428651
0.42864
0.428628
0.428616
0.428603
0.428589
0.428574
0.428558
0.42854
0.428521
0.428499
0.428475
0.428447
0.428413
0.428369
0.428308
0.42822
0.428088
0.427885
0.427571
0.427085
0.426345
0.425237
0.423615
0.421301
0.418088
0.413755
0.408092
0.400924
0.392154
0.381795
0.369996
0.357056
0.343412
0.329603
0.316214
0.303817
0.292898
0.283808
0.276726
0.271641
0.268367
0.266564
0.265791
0.26558
0.26556
0.265565
0.265581
0.265615
0.265663
0.265715
0.265763
0.2658
0.265827
0.265846
0.265859
0.265869
0.265878
0.265887
0.265896
0.265904
0.265912
0.265919
0.265924
0.265929
0.265932
0.265934
0.265936
0.265937
0.265938
0.265938
0.265939
0.265939
0.265939
0.265939
0.265939
0.26594
0.26594
0.26594
0.26594
0.26594
0.26594
0.26594
0.26594
0.26594
0.26594
0.26594
0.26594
0.26594
0.265939
0.265939
0.265939
0.265939
0.265939
0.265939
0.265938
0.265938
0.265937
0.265938
0.265936
0.265937
0.265931
0.265934
0.265918
0.265921
0.265878
0.265868
0.26574
0.265662
0.265227
0.264856
0.263325
0.261715
0.25644
0.249375
0.231241
0.199613
0.15151
0.127539
0.125311
0.125291
0.125291
0.125291
0.125291
0.125291
0.125291
0.125291
0.125291
0.125291
0.125291
0.125291
0.125291
0.125291
0.125291
0.125291
0.125291
0.125291
0.125291
0.125291
0.125291
0.125291
0.125291
0.125291
0.125291
0.125291
0.125291
0.125291
0.125291
0.125291
0.125291
0.125291
0.125291
0.125291
0.125291
0.125291
0.125291
0.125291
0.125291
0.125291
0.125291
0.125291
0.125291
0.125291
0.125291
0.125291
0.125291
0.125291
0.125291
0.125291
0.125291
0.125291
0.125291
0.125291
0.125291
0.125291
0.125291
0.125291
0.125291
0.125291
0.125291
0.125291
0.125291
0.125291
0.125291
0.125291
0.125291
0.125291
0.125291
0.125291
0.125291
0.125291
0.125291
0.125291
0.125291
0.125291
0.125291
0.125291
0.125291
0.125291
0.125291
0.125291
0.125291
0.125291
0.125291
0.125291
0.125291
0.125291
0.125291
0.125291
0.125291
0.125291
0.125291
0.125291
0.125291
0.125291
0.125291
0.125291
0.125291
0.125291
0.125291
0.125291
0.125291
0.125291
0.125291
0.125291
0.125291
0.125291
0.125291
0.125291
0.125291
0.125291
0.125291
0.125291
0.125291
0.125291
0.125291
0.125291
0.125291
0.125291
0.125291
0.125291
0.125291
0.125291
0.125291
0.125291
0.125291
0.125291
0.125291
0.125291
0.125291
0.125291
0.125291
0.125291
0.125291
0.125291
0.125291
0.125291
0.125291
0.125291
0.125291
0.125291
0.125291
0.125291
0.125291
0.125291
0.125291
0.125291
0.125291
0.125291
0.125291
0.125291
0.125291
0.125291
0.125291
0.125291
0.125291
0.125291
0.125291
0.125291
0.125291
0.125291
0.125291
0.125291
0.125291
0.125291
0.125291
0.125291
0.125291
0.125291
0.125291
0.125291
0.125291
0.125291
0.125291
0.125291
0.125291
0.125291
0.125291
0.125291
0.125291
0.125291
0.125291
0.125291
0.125291
0.125291
0.125291
0.125291
0.125291
0.125291
0.125291
0.125291
0.125291
0.125291
0.125291
0.125291
0.125291
0.125291
0.125291
0.125291
0.125291
0.125291
0.125291
0.125291
0.125291
0.125291
0.125291
0.125291
0.125291
0.125291
0.125291
0.125291
0.125291
0.125291
0.125291
0.125291
0.125291
0.125291
0.125291
0.125291
0.125291
0.125291
0.125291
0.125291
0.125291
0.125291
0.125291
0.125291
0.125291
0.125291
0.125291
0.125291
0.125291
0.125291
0.125291
0.125291
0.125291
0.125291
0.125291
0.125291
0.125291
0.125291
0.125291
0.125291
0.125291
0.125291
0.125291
0.125291
0.125291
0.125291
0.125291
0.125291
0.125291
0.125291
0.125291
0.125291
0.125291
0.125291
0.125291
0.125291
0.125291
0.125291
0.125291
0.125291
0.125291
0.125291
0.125291
0.125291
0.125291
0.125291
0.125291
0.125291
0.125291
0.125291
0.125291
0.125291
0.125291
0.125291
0.125291
0.125291
0.125291
0.125291
0.125291
0.125291
0.125291
0.125291
0.125291
0.125291
0.125291
0.125291
0.125291
0.125291
0.125291
0.125291
0.125291
0.125291
0.125291
0.125291
0.125291
0.125291
0.125291
0.125291
0.125291
0.125291
0.125291
0.125291
0.125291
0.125291
0.125291
0.125291
0.125291
0.125291
0.125291
0.125291
0.125291
0.125291
0.125291
0.125291
0.125291
0.125291
0.125291
0.125291
)
;

boundaryField
{
    sides
    {
        type            calculated;
        value           nonuniform List<scalar> 2(0.125291 1.00725);
    }
    empty
    {
        type            empty;
    }
}


// ************************************************************************* //
