/*--------------------------------*- C++ -*----------------------------------*\
  =========                 |
  \\      /  F ield         | OpenFOAM: The Open Source CFD Toolbox
   \\    /   O peration     | Website:  https://openfoam.org
    \\  /    A nd           | Version:  12
     \\/     M anipulation  |
\*---------------------------------------------------------------------------*/
FoamFile
{
    format      ascii;
    class       volVectorField;
    location    "0.1";
    object      U;
}
// * * * * * * * * * * * * * * * * * * * * * * * * * * * * * * * * * * * * * //

dimensions      [0 1 -1 0 0 0 0];

internalField   nonuniform List<vector> 
1000
(
(-4.33863e-10 0 0)
(-4.26443e-10 0 0)
(-4.25342e-10 0 0)
(-4.28487e-10 0 0)
(-4.2431e-10 0 0)
(-4.45316e-10 0 0)
(-4.38638e-10 0 0)
(-4.31639e-10 0 0)
(-4.00422e-10 0 0)
(-3.73685e-10 0 0)
(-3.27568e-10 0 0)
(-2.97141e-10 0 0)
(-2.80946e-10 0 0)
(-2.55468e-10 0 0)
(-2.302e-10 0 0)
(-2.23013e-10 0 0)
(-2.00702e-10 0 0)
(-1.79504e-10 0 0)
(-1.87778e-10 0 0)
(-1.85641e-10 0 0)
(-2.07618e-10 0 0)
(-2.16973e-10 0 0)
(-2.22223e-10 0 0)
(-2.12549e-10 0 0)
(-1.85213e-10 0 0)
(-1.78165e-10 0 0)
(-2.16501e-10 0 0)
(-2.3995e-10 0 0)
(-2.61267e-10 0 0)
(-3.26082e-10 0 0)
(-3.58147e-10 0 0)
(-3.90392e-10 0 0)
(-4.11218e-10 0 0)
(-4.26881e-10 0 0)
(-4.63136e-10 0 0)
(-4.84662e-10 0 0)
(-4.33948e-10 0 0)
(-3.35212e-10 0 0)
(-2.50586e-10 0 0)
(-2.34953e-10 0 0)
(-2.51565e-10 0 0)
(-2.7369e-10 0 0)
(-3.24236e-10 0 0)
(-3.41539e-10 0 0)
(-3.42307e-10 0 0)
(-3.62121e-10 0 0)
(-4.21073e-10 0 0)
(-4.72865e-10 0 0)
(-4.55896e-10 0 0)
(-4.41498e-10 0 0)
(-4.38193e-10 0 0)
(-4.32627e-10 0 0)
(-4.42461e-10 0 0)
(-4.22407e-10 0 0)
(-4.1833e-10 0 0)
(-4.23384e-10 0 0)
(-4.13916e-10 0 0)
(-4.28638e-10 0 0)
(-4.24924e-10 0 0)
(-4.10785e-10 0 0)
(-4.30373e-10 0 0)
(-4.308e-10 0 0)
(-4.39143e-10 0 0)
(-4.47118e-10 0 0)
(-4.39449e-10 0 0)
(-4.66465e-10 0 0)
(-4.90915e-10 0 0)
(-4.96e-10 0 0)
(-5.04346e-10 0 0)
(-5.2237e-10 0 0)
(-5.20437e-10 0 0)
(-5.4221e-10 0 0)
(-5.41179e-10 0 0)
(-5.38701e-10 0 0)
(-5.29854e-10 0 0)
(-4.97221e-10 0 0)
(-4.63309e-10 0 0)
(-4.4433e-10 0 0)
(-4.57609e-10 0 0)
(-4.52848e-10 0 0)
(-4.41011e-10 0 0)
(-4.31847e-10 0 0)
(-4.3268e-10 0 0)
(-4.47157e-10 0 0)
(-4.67613e-10 0 0)
(-4.98188e-10 0 0)
(-5.17951e-10 0 0)
(-5.20311e-10 0 0)
(-5.00757e-10 0 0)
(-4.96986e-10 0 0)
(-5.00788e-10 0 0)
(-4.9565e-10 0 0)
(-4.6355e-10 0 0)
(-4.11398e-10 0 0)
(-3.99908e-10 0 0)
(-3.99169e-10 0 0)
(-3.66719e-10 0 0)
(-3.78947e-10 0 0)
(-3.88215e-10 0 0)
(-3.5779e-10 0 0)
(-3.22367e-10 0 0)
(-2.58147e-10 0 0)
(-2.23885e-10 0 0)
(-1.99992e-10 0 0)
(-1.27314e-10 0 0)
(-1.13369e-10 0 0)
(-6.08627e-11 0 0)
(-1.6157e-11 0 0)
(-1.36398e-11 0 0)
(1.0664e-11 0 0)
(3.70643e-11 0 0)
(3.54238e-11 0 0)
(2.88444e-11 0 0)
(3.14515e-11 0 0)
(6.05742e-11 0 0)
(1.28398e-10 0 0)
(1.9496e-10 0 0)
(2.06457e-10 0 0)
(1.77878e-10 0 0)
(2.01021e-10 0 0)
(1.98501e-10 0 0)
(1.84704e-10 0 0)
(1.83003e-10 0 0)
(1.95908e-10 0 0)
(2.04916e-10 0 0)
(2.06428e-10 0 0)
(2.27892e-10 0 0)
(2.48653e-10 0 0)
(2.48963e-10 0 0)
(2.36689e-10 0 0)
(2.24836e-10 0 0)
(2.60514e-10 0 0)
(2.68549e-10 0 0)
(2.8419e-10 0 0)
(2.74184e-10 0 0)
(2.49529e-10 0 0)
(2.03499e-10 0 0)
(1.51067e-10 0 0)
(1.28356e-10 0 0)
(8.85052e-11 0 0)
(5.85999e-11 0 0)
(4.92757e-11 0 0)
(6.31874e-11 0 0)
(5.3177e-11 0 0)
(3.87951e-11 0 0)
(2.21865e-11 0 0)
(4.06024e-12 0 0)
(-2.59888e-12 0 0)
(-2.00222e-11 0 0)
(-3.02355e-11 0 0)
(-3.96881e-11 0 0)
(-6.14236e-11 0 0)
(-6.35638e-11 0 0)
(-5.27658e-11 0 0)
(-5.09179e-11 0 0)
(-3.34971e-11 0 0)
(-1.72389e-11 0 0)
(-1.21776e-11 0 0)
(-8.8636e-12 0 0)
(-2.01815e-12 0 0)
(8.25745e-12 0 0)
(-1.46177e-11 0 0)
(-5.40193e-11 0 0)
(-5.87333e-11 0 0)
(-8.22576e-11 0 0)
(-1.10293e-10 0 0)
(-1.20401e-10 0 0)
(-1.23441e-10 0 0)
(-1.3909e-10 0 0)
(-1.83666e-10 0 0)
(-2.39454e-10 0 0)
(-2.76563e-10 0 0)
(-2.65654e-10 0 0)
(-2.61835e-10 0 0)
(-2.38959e-10 0 0)
(-2.3046e-10 0 0)
(-1.96452e-10 0 0)
(-1.69437e-10 0 0)
(-1.35922e-10 0 0)
(-9.64811e-11 0 0)
(-9.03844e-11 0 0)
(-6.72067e-11 0 0)
(-4.95631e-11 0 0)
(-2.83669e-11 0 0)
(-2.45257e-11 0 0)
(2.49326e-11 0 0)
(6.78448e-11 0 0)
(7.98717e-11 0 0)
(1.02544e-10 0 0)
(1.32571e-10 0 0)
(1.38504e-10 0 0)
(1.16193e-10 0 0)
(1.4022e-10 0 0)
(1.58505e-10 0 0)
(1.86239e-10 0 0)
(2.14407e-10 0 0)
(2.18558e-10 0 0)
(2.29692e-10 0 0)
(2.45651e-10 0 0)
(2.69197e-10 0 0)
(2.71794e-10 0 0)
(2.97411e-10 0 0)
(3.86476e-10 0 0)
(3.67687e-10 0 0)
(3.28235e-10 0 0)
(3.0875e-10 0 0)
(3.2475e-10 0 0)
(3.5229e-10 0 0)
(3.15889e-10 0 0)
(2.85474e-10 0 0)
(2.77177e-10 0 0)
(2.97063e-10 0 0)
(2.87363e-10 0 0)
(2.71834e-10 0 0)
(2.50348e-10 0 0)
(2.45954e-10 0 0)
(2.28807e-10 0 0)
(2.66578e-10 0 0)
(3.24611e-10 0 0)
(3.48106e-10 0 0)
(3.41346e-10 0 0)
(3.28871e-10 0 0)
(3.31257e-10 0 0)
(3.18519e-10 0 0)
(3.32909e-10 0 0)
(3.5553e-10 0 0)
(3.09331e-10 0 0)
(2.66035e-10 0 0)
(2.39104e-10 0 0)
(2.03426e-10 0 0)
(1.66878e-10 0 0)
(1.5538e-10 0 0)
(1.68125e-10 0 0)
(1.37874e-10 0 0)
(1.44502e-10 0 0)
(1.76366e-10 0 0)
(1.9763e-10 0 0)
(2.67219e-10 0 0)
(2.82521e-10 0 0)
(2.46825e-10 0 0)
(1.78808e-10 0 0)
(1.10659e-10 0 0)
(1.16249e-10 0 0)
(1.38841e-10 0 0)
(1.43288e-10 0 0)
(1.59725e-10 0 0)
(1.54578e-10 0 0)
(1.4006e-10 0 0)
(1.59184e-10 0 0)
(1.69878e-10 0 0)
(1.84172e-10 0 0)
(1.9476e-10 0 0)
(1.60999e-10 0 0)
(1.27164e-10 0 0)
(1.31253e-10 0 0)
(1.52129e-10 0 0)
(1.8213e-10 0 0)
(2.24387e-10 0 0)
(2.66671e-10 0 0)
(3.18019e-10 0 0)
(3.6663e-10 0 0)
(3.99504e-10 0 0)
(4.08122e-10 0 0)
(4.17023e-10 0 0)
(4.12003e-10 0 0)
(4.14755e-10 0 0)
(4.2299e-10 0 0)
(4.3339e-10 0 0)
(4.64017e-10 0 0)
(4.70388e-10 0 0)
(4.70697e-10 0 0)
(4.93268e-10 0 0)
(5.10085e-10 0 0)
(5.13698e-10 0 0)
(5.10306e-10 0 0)
(5.17739e-10 0 0)
(5.11782e-10 0 0)
(4.97512e-10 0 0)
(4.91339e-10 0 0)
(4.45198e-10 0 0)
(4.14203e-10 0 0)
(4.20646e-10 0 0)
(4.18891e-10 0 0)
(3.79379e-10 0 0)
(3.44524e-10 0 0)
(3.50446e-10 0 0)
(3.75509e-10 0 0)
(3.98596e-10 0 0)
(4.01474e-10 0 0)
(4.25435e-10 0 0)
(4.44979e-10 0 0)
(4.25477e-10 0 0)
(3.819e-10 0 0)
(3.50322e-10 0 0)
(3.33266e-10 0 0)
(3.30514e-10 0 0)
(3.03722e-10 0 0)
(2.77751e-10 0 0)
(2.37244e-10 0 0)
(2.13547e-10 0 0)
(1.96287e-10 0 0)
(2.00711e-10 0 0)
(2.03231e-10 0 0)
(2.07064e-10 0 0)
(2.04277e-10 0 0)
(1.76215e-10 0 0)
(1.60358e-10 0 0)
(1.61208e-10 0 0)
(1.87594e-10 0 0)
(1.8681e-10 0 0)
(1.69243e-10 0 0)
(1.63234e-10 0 0)
(1.63415e-10 0 0)
(1.51844e-10 0 0)
(1.54021e-10 0 0)
(1.79272e-10 0 0)
(2.06226e-10 0 0)
(2.28644e-10 0 0)
(2.42212e-10 0 0)
(2.29429e-10 0 0)
(2.2329e-10 0 0)
(1.84078e-10 0 0)
(2.03022e-10 0 0)
(1.86674e-10 0 0)
(1.40285e-10 0 0)
(1.12591e-10 0 0)
(8.96573e-11 0 0)
(7.72741e-11 0 0)
(7.6419e-11 0 0)
(7.65591e-11 0 0)
(7.67443e-11 0 0)
(8.13225e-11 0 0)
(9.85342e-11 0 0)
(1.13162e-10 0 0)
(1.5456e-10 0 0)
(1.63846e-10 0 0)
(1.57922e-10 0 0)
(1.53903e-10 0 0)
(1.12056e-10 0 0)
(1.08342e-10 0 0)
(1.72887e-10 0 0)
(2.38315e-10 0 0)
(2.39193e-10 0 0)
(2.35808e-10 0 0)
(2.73958e-10 0 0)
(3.35066e-10 0 0)
(3.6704e-10 0 0)
(3.49975e-10 0 0)
(3.44765e-10 0 0)
(3.35408e-10 0 0)
(2.96931e-10 0 0)
(2.55168e-10 0 0)
(2.20717e-10 0 0)
(2.09967e-10 0 0)
(2.26329e-10 0 0)
(2.31454e-10 0 0)
(2.22453e-10 0 0)
(2.46348e-10 0 0)
(2.69408e-10 0 0)
(2.39165e-10 0 0)
(2.0658e-10 0 0)
(1.78702e-10 0 0)
(1.1763e-10 0 0)
(6.15005e-11 0 0)
(2.73638e-11 0 0)
(6.86612e-11 0 0)
(1.3977e-08 0 0)
(7.67855e-07 0 0)
(1.13362e-05 0 0)
(6.857e-05 0 0)
(0.000238297 0 0)
(0.000595197 0 0)
(0.00121382 0 0)
(0.00216505 0 0)
(0.00351025 0 0)
(0.00529604 0 0)
(0.00755191 0 0)
(0.0102902 0 0)
(0.0135082 0 0)
(0.0171907 0 0)
(0.0213137 0 0)
(0.0258473 0 0)
(0.0307584 0 0)
(0.0360128 0 0)
(0.041577 0 0)
(0.0474189 0 0)
(0.0535085 0 0)
(0.0598186 0 0)
(0.0663244 0 0)
(0.0730039 0 0)
(0.0798374 0 0)
(0.0868077 0 0)
(0.0938995 0 0)
(0.101099 0 0)
(0.108396 0 0)
(0.115778 0 0)
(0.123237 0 0)
(0.130766 0 0)
(0.138357 0 0)
(0.146004 0 0)
(0.153701 0 0)
(0.161445 0 0)
(0.16923 0 0)
(0.177054 0 0)
(0.184912 0 0)
(0.192802 0 0)
(0.200721 0 0)
(0.208667 0 0)
(0.216638 0 0)
(0.224632 0 0)
(0.232647 0 0)
(0.240682 0 0)
(0.248735 0 0)
(0.256804 0 0)
(0.26489 0 0)
(0.272991 0 0)
(0.281105 0 0)
(0.289233 0 0)
(0.297373 0 0)
(0.305524 0 0)
(0.313686 0 0)
(0.321859 0 0)
(0.330041 0 0)
(0.338232 0 0)
(0.346432 0 0)
(0.35464 0 0)
(0.362856 0 0)
(0.371079 0 0)
(0.37931 0 0)
(0.387547 0 0)
(0.395791 0 0)
(0.40404 0 0)
(0.412296 0 0)
(0.420557 0 0)
(0.428824 0 0)
(0.437096 0 0)
(0.445373 0 0)
(0.453655 0 0)
(0.461941 0 0)
(0.470232 0 0)
(0.478527 0 0)
(0.486827 0 0)
(0.49513 0 0)
(0.503437 0 0)
(0.511748 0 0)
(0.520063 0 0)
(0.528381 0 0)
(0.536703 0 0)
(0.545027 0 0)
(0.553356 0 0)
(0.561687 0 0)
(0.570021 0 0)
(0.578358 0 0)
(0.586698 0 0)
(0.595041 0 0)
(0.603387 0 0)
(0.611736 0 0)
(0.620086 0 0)
(0.62844 0 0)
(0.636796 0 0)
(0.645154 0 0)
(0.653514 0 0)
(0.661877 0 0)
(0.670242 0 0)
(0.678608 0 0)
(0.686977 0 0)
(0.695347 0 0)
(0.70372 0 0)
(0.712093 0 0)
(0.720468 0 0)
(0.728845 0 0)
(0.737222 0 0)
(0.745601 0 0)
(0.75398 0 0)
(0.76236 0 0)
(0.77074 0 0)
(0.779121 0 0)
(0.787502 0 0)
(0.795883 0 0)
(0.804263 0 0)
(0.812643 0 0)
(0.821022 0 0)
(0.8294 0 0)
(0.837776 0 0)
(0.84615 0 0)
(0.854521 0 0)
(0.862889 0 0)
(0.871253 0 0)
(0.87961 0 0)
(0.887951 0 0)
(0.89625 0 0)
(0.904427 0 0)
(0.912274 0 0)
(0.919317 0 0)
(0.924749 0 0)
(0.927794 0 0)
(0.928653 0 0)
(0.928371 0 0)
(0.926931 0 0)
(0.926297 0 0)
(0.926223 0 0)
(0.926234 0 0)
(0.926232 0 0)
(0.926134 0 0)
(0.926007 0 0)
(0.925895 0 0)
(0.925788 0 0)
(0.925692 0 0)
(0.925606 0 0)
(0.925533 0 0)
(0.925471 0 0)
(0.925421 0 0)
(0.925379 0 0)
(0.925342 0 0)
(0.925308 0 0)
(0.925278 0 0)
(0.925254 0 0)
(0.925237 0 0)
(0.925224 0 0)
(0.925212 0 0)
(0.925201 0 0)
(0.925191 0 0)
(0.925181 0 0)
(0.925171 0 0)
(0.925162 0 0)
(0.925153 0 0)
(0.925144 0 0)
(0.925136 0 0)
(0.925128 0 0)
(0.92512 0 0)
(0.925113 0 0)
(0.925106 0 0)
(0.925099 0 0)
(0.925093 0 0)
(0.925087 0 0)
(0.925081 0 0)
(0.925076 0 0)
(0.925071 0 0)
(0.925066 0 0)
(0.925062 0 0)
(0.925058 0 0)
(0.925055 0 0)
(0.925052 0 0)
(0.925049 0 0)
(0.925047 0 0)
(0.925044 0 0)
(0.92504 0 0)
(0.925038 0 0)
(0.925035 0 0)
(0.925034 0 0)
(0.925032 0 0)
(0.925031 0 0)
(0.92503 0 0)
(0.925028 0 0)
(0.925027 0 0)
(0.925026 0 0)
(0.925025 0 0)
(0.925025 0 0)
(0.925024 0 0)
(0.925023 0 0)
(0.925023 0 0)
(0.925022 0 0)
(0.925022 0 0)
(0.925022 0 0)
(0.925021 0 0)
(0.925021 0 0)
(0.925021 0 0)
(0.925021 0 0)
(0.925021 0 0)
(0.925021 0 0)
(0.925021 0 0)
(0.925021 0 0)
(0.925021 0 0)
(0.925021 0 0)
(0.925021 0 0)
(0.925021 0 0)
(0.925021 0 0)
(0.925021 0 0)
(0.925021 0 0)
(0.925021 0 0)
(0.925021 0 0)
(0.925022 0 0)
(0.925023 0 0)
(0.925025 0 0)
(0.92503 0 0)
(0.925038 0 0)
(0.925051 0 0)
(0.925072 0 0)
(0.925101 0 0)
(0.925138 0 0)
(0.925182 0 0)
(0.925228 0 0)
(0.925269 0 0)
(0.925297 0 0)
(0.925305 0 0)
(0.925288 0 0)
(0.925248 0 0)
(0.925194 0 0)
(0.925137 0 0)
(0.925089 0 0)
(0.925056 0 0)
(0.925038 0 0)
(0.925032 0 0)
(0.925031 0 0)
(0.925031 0 0)
(0.925031 0 0)
(0.925031 0 0)
(0.925031 0 0)
(0.925031 0 0)
(0.925031 0 0)
(0.925031 0 0)
(0.925031 0 0)
(0.925032 0 0)
(0.925032 0 0)
(0.925032 0 0)
(0.925032 0 0)
(0.925032 0 0)
(0.925033 0 0)
(0.925033 0 0)
(0.925033 0 0)
(0.925033 0 0)
(0.925034 0 0)
(0.925034 0 0)
(0.925034 0 0)
(0.925034 0 0)
(0.925034 0 0)
(0.925035 0 0)
(0.925035 0 0)
(0.925035 0 0)
(0.925035 0 0)
(0.925035 0 0)
(0.925035 0 0)
(0.925034 0 0)
(0.925034 0 0)
(0.925034 0 0)
(0.925034 0 0)
(0.925034 0 0)
(0.925034 0 0)
(0.925034 0 0)
(0.925034 0 0)
(0.925034 0 0)
(0.925034 0 0)
(0.925034 0 0)
(0.925034 0 0)
(0.925034 0 0)
(0.925034 0 0)
(0.925034 0 0)
(0.925034 0 0)
(0.925034 0 0)
(0.925034 0 0)
(0.925034 0 0)
(0.925033 0 0)
(0.925033 0 0)
(0.925032 0 0)
(0.925033 0 0)
(0.92503 0 0)
(0.925032 0 0)
(0.925025 0 0)
(0.925029 0 0)
(0.925013 0 0)
(0.925019 0 0)
(0.924977 0 0)
(0.924981 0 0)
(0.92487 0 0)
(0.924835 0 0)
(0.924572 0 0)
(0.924235 0 0)
(0.923532 0 0)
(0.92187 0 0)
(0.919599 0 0)
(0.912908 0 0)
(0.90433 0 0)
(0.879636 0 0)
(0.842849 0 0)
(0.749018 0 0)
(0.564814 0 0)
(0.224964 0 0)
(0.019808 0 0)
(0.000174733 0 0)
(9.14148e-08 0 0)
(-9.55058e-11 0 0)
(-6.93447e-11 0 0)
(-4.73956e-11 0 0)
(-4.70025e-11 0 0)
(-1.19112e-11 0 0)
(3.6468e-11 0 0)
(8.63518e-11 0 0)
(8.20166e-11 0 0)
(8.85735e-11 0 0)
(1.07299e-10 0 0)
(1.09784e-10 0 0)
(1.40402e-10 0 0)
(1.5149e-10 0 0)
(1.3992e-10 0 0)
(1.25278e-10 0 0)
(9.25082e-11 0 0)
(9.21328e-11 0 0)
(7.29542e-11 0 0)
(2.15922e-11 0 0)
(2.64148e-12 0 0)
(-2.17894e-12 0 0)
(-2.37967e-11 0 0)
(-6.63158e-11 0 0)
(-5.20251e-11 0 0)
(-4.28522e-11 0 0)
(-1.2962e-11 0 0)
(2.19918e-11 0 0)
(6.50371e-11 0 0)
(9.13505e-11 0 0)
(9.21968e-11 0 0)
(6.92026e-11 0 0)
(8.66403e-11 0 0)
(9.30509e-11 0 0)
(9.44418e-11 0 0)
(8.02442e-11 0 0)
(8.59286e-11 0 0)
(1.20556e-10 0 0)
(1.4324e-10 0 0)
(1.29316e-10 0 0)
(1.34489e-10 0 0)
(1.47256e-10 0 0)
(1.68607e-10 0 0)
(1.16554e-10 0 0)
(1.15352e-10 0 0)
(1.59636e-10 0 0)
(1.00075e-10 0 0)
(6.66857e-11 0 0)
(4.93383e-11 0 0)
(3.13865e-11 0 0)
(2.19394e-11 0 0)
(-2.40386e-11 0 0)
(-5.01878e-11 0 0)
(-2.83182e-11 0 0)
(-1.51974e-11 0 0)
(-2.93979e-11 0 0)
(-2.2419e-11 0 0)
(-3.53463e-11 0 0)
(-5.16605e-11 0 0)
(-5.66161e-11 0 0)
(-5.27762e-11 0 0)
(-4.22288e-11 0 0)
(-3.00749e-11 0 0)
(-7.47486e-13 0 0)
(7.042e-11 0 0)
(1.41126e-10 0 0)
(1.93011e-10 0 0)
(2.08464e-10 0 0)
(2.17963e-10 0 0)
(1.90171e-10 0 0)
(1.36031e-10 0 0)
(1.37763e-10 0 0)
(1.48259e-10 0 0)
(1.72247e-10 0 0)
(1.82584e-10 0 0)
(1.49333e-10 0 0)
(1.4199e-10 0 0)
(2.02333e-10 0 0)
(2.13872e-10 0 0)
(1.98941e-10 0 0)
(1.95383e-10 0 0)
(2.1101e-10 0 0)
(1.80608e-10 0 0)
(1.14297e-10 0 0)
(1.18383e-10 0 0)
(1.64133e-10 0 0)
(1.58687e-10 0 0)
(1.52097e-10 0 0)
(1.55991e-10 0 0)
(1.35515e-10 0 0)
(8.13852e-11 0 0)
(5.93715e-11 0 0)
(4.93487e-11 0 0)
(4.66836e-11 0 0)
(2.73558e-11 0 0)
(3.58955e-11 0 0)
(8.61225e-11 0 0)
(1.01283e-10 0 0)
(1.28599e-10 0 0)
(1.06911e-10 0 0)
(8.22486e-11 0 0)
(6.29965e-11 0 0)
(1.57597e-12 0 0)
(-1.54184e-11 0 0)
(-2.55018e-11 0 0)
(-2.34536e-11 0 0)
(4.62738e-12 0 0)
(3.18184e-11 0 0)
(6.29986e-11 0 0)
(4.34725e-11 0 0)
(8.02005e-12 0 0)
(6.87206e-12 0 0)
(-9.49516e-12 0 0)
(-4.59986e-11 0 0)
(-6.68193e-11 0 0)
(-8.40073e-11 0 0)
(-9.98222e-11 0 0)
(-1.05743e-10 0 0)
(-1.48407e-10 0 0)
(-1.66699e-10 0 0)
(-2.02601e-10 0 0)
(-2.18376e-10 0 0)
(-2.08072e-10 0 0)
(-2.40447e-10 0 0)
(-2.34646e-10 0 0)
(-2.03412e-10 0 0)
(-1.5451e-10 0 0)
(-1.12204e-10 0 0)
(-1.13753e-10 0 0)
(-7.46067e-11 0 0)
(-7.79785e-11 0 0)
(-1.27561e-10 0 0)
(-1.63573e-10 0 0)
(-2.01325e-10 0 0)
(-1.78008e-10 0 0)
(-1.54538e-10 0 0)
(-1.37905e-10 0 0)
(-1.46327e-10 0 0)
(-1.43959e-10 0 0)
(-1.064e-10 0 0)
(-1.04051e-10 0 0)
(-1.0453e-10 0 0)
(-9.77818e-11 0 0)
(-1.02167e-10 0 0)
(-1.16461e-10 0 0)
(-1.2909e-10 0 0)
(-1.14436e-10 0 0)
(-1.23192e-10 0 0)
(-1.35728e-10 0 0)
(-1.22941e-10 0 0)
(-9.79568e-11 0 0)
(-9.49266e-11 0 0)
(-9.45059e-11 0 0)
(-9.33357e-11 0 0)
(-9.29333e-11 0 0)
(-9.46793e-11 0 0)
(-1.05897e-10 0 0)
(-8.02366e-11 0 0)
(-3.18563e-11 0 0)
(-1.84735e-11 0 0)
(-2.89834e-13 0 0)
(1.00613e-11 0 0)
(-1.65686e-11 0 0)
(-6.03971e-11 0 0)
(-7.56003e-11 0 0)
(-6.02343e-11 0 0)
(-4.26118e-11 0 0)
(-5.22463e-11 0 0)
(-8.35846e-11 0 0)
(-1.03677e-10 0 0)
(-8.41819e-11 0 0)
(-9.28489e-11 0 0)
(-1.00241e-10 0 0)
(-8.11418e-11 0 0)
(-2.98262e-11 0 0)
(3.44307e-12 0 0)
(-1.33557e-11 0 0)
(2.26475e-11 0 0)
(6.1271e-11 0 0)
(4.60586e-11 0 0)
(4.6593e-11 0 0)
(3.91205e-11 0 0)
(1.85443e-11 0 0)
(-8.23854e-12 0 0)
(-3.12082e-11 0 0)
(-2.51267e-11 0 0)
(-9.45376e-12 0 0)
(-1.10263e-11 0 0)
(-2.73654e-12 0 0)
(-4.34557e-12 0 0)
(-3.9226e-11 0 0)
(-6.23373e-11 0 0)
(-9.22837e-11 0 0)
(-8.59143e-11 0 0)
(-6.21652e-11 0 0)
(-5.69928e-11 0 0)
(-4.20952e-11 0 0)
(1.10657e-11 0 0)
(4.2766e-11 0 0)
(6.26666e-11 0 0)
(3.48295e-11 0 0)
(-1.11158e-12 0 0)
(7.2723e-12 0 0)
(7.10267e-13 0 0)
(4.44111e-11 0 0)
(8.73919e-11 0 0)
(9.12573e-11 0 0)
(9.75489e-11 0 0)
(9.88419e-11 0 0)
(1.12546e-10 0 0)
(1.27337e-10 0 0)
(1.06999e-10 0 0)
(6.60581e-11 0 0)
(7.15455e-11 0 0)
(9.07619e-11 0 0)
(9.58481e-11 0 0)
(6.58207e-11 0 0)
(9.6139e-11 0 0)
(1.3315e-10 0 0)
(1.07335e-10 0 0)
(5.24981e-11 0 0)
(2.24481e-11 0 0)
(1.72889e-11 0 0)
(4.25871e-12 0 0)
(-1.10875e-11 0 0)
(-1.08473e-11 0 0)
(-3.43706e-11 0 0)
(-6.3331e-11 0 0)
(-8.73276e-11 0 0)
(-8.98902e-11 0 0)
(-4.84767e-11 0 0)
(-1.45066e-11 0 0)
(2.40915e-11 0 0)
(-1.3549e-11 0 0)
(-1.63915e-11 0 0)
(1.00155e-11 0 0)
(2.7609e-11 0 0)
(4.50611e-11 0 0)
(7.48311e-11 0 0)
(1.14201e-10 0 0)
(1.29349e-10 0 0)
(1.35399e-10 0 0)
(1.78936e-10 0 0)
(2.20435e-10 0 0)
(2.22032e-10 0 0)
(2.40039e-10 0 0)
(2.69587e-10 0 0)
(2.75729e-10 0 0)
(2.58876e-10 0 0)
(2.78244e-10 0 0)
(2.78975e-10 0 0)
(2.4918e-10 0 0)
(2.55508e-10 0 0)
(2.65871e-10 0 0)
(2.83185e-10 0 0)
(2.85608e-10 0 0)
(3.22423e-10 0 0)
(3.63963e-10 0 0)
(3.78547e-10 0 0)
(3.91106e-10 0 0)
(3.82887e-10 0 0)
(3.777e-10 0 0)
(4.19192e-10 0 0)
(4.38484e-10 0 0)
(4.42669e-10 0 0)
(4.65668e-10 0 0)
(4.92569e-10 0 0)
(5.10964e-10 0 0)
(4.50481e-10 0 0)
(4.29701e-10 0 0)
(4.57806e-10 0 0)
(4.65265e-10 0 0)
(4.91387e-10 0 0)
(5.42349e-10 0 0)
(5.15581e-10 0 0)
(4.7363e-10 0 0)
(4.31631e-10 0 0)
(4.44956e-10 0 0)
(4.34809e-10 0 0)
(3.70985e-10 0 0)
(3.21657e-10 0 0)
(3.20947e-10 0 0)
(2.95926e-10 0 0)
(3.28832e-10 0 0)
(3.27943e-10 0 0)
(2.8319e-10 0 0)
(3.11466e-10 0 0)
(3.06782e-10 0 0)
(2.66078e-10 0 0)
(2.52624e-10 0 0)
(2.90528e-10 0 0)
(3.75143e-10 0 0)
(3.59255e-10 0 0)
(3.215e-10 0 0)
(3.47902e-10 0 0)
(3.54474e-10 0 0)
(3.22166e-10 0 0)
(2.78976e-10 0 0)
(3.28358e-10 0 0)
(3.54286e-10 0 0)
(3.41718e-10 0 0)
(3.06057e-10 0 0)
(3.17744e-10 0 0)
(3.23428e-10 0 0)
(2.77313e-10 0 0)
(2.57609e-10 0 0)
(2.85809e-10 0 0)
(3.04259e-10 0 0)
(3.30873e-10 0 0)
(3.1437e-10 0 0)
(3.26233e-10 0 0)
(3.27558e-10 0 0)
(3.6606e-10 0 0)
(3.76728e-10 0 0)
(3.39488e-10 0 0)
(3.57906e-10 0 0)
(3.70677e-10 0 0)
(4.15198e-10 0 0)
(4.74133e-10 0 0)
(4.95547e-10 0 0)
(4.72231e-10 0 0)
)
;

boundaryField
{
    sides
    {
        type            zeroGradient;
    }
    empty
    {
        type            empty;
    }
}


// ************************************************************************* //
