/*--------------------------------*- C++ -*----------------------------------*\
  =========                 |
  \\      /  F ield         | OpenFOAM: The Open Source CFD Toolbox
   \\    /   O peration     | Website:  https://openfoam.org
    \\  /    A nd           | Version:  12
     \\/     M anipulation  |
\*---------------------------------------------------------------------------*/
FoamFile
{
    format      ascii;
    class       volScalarField;
    location    "0";
    object      p;
}
// * * * * * * * * * * * * * * * * * * * * * * * * * * * * * * * * * * * * * //

dimensions      [0 2 -2 0 0 0 0];

internalField   nonuniform List<scalar> 
42400
(
-1.06753e+28
-1.05574e+28
-3.20629e+28
-1.02533e+28
-3.17e+28
-5.35282e+28
-9.80162e+27
-3.08055e+28
-5.28643e+28
-7.5168e+28
-9.22735e+27
-2.94476e+28
-5.13506e+28
-7.42186e+28
-9.69043e+28
-8.55312e+27
-2.77253e+28
-4.90958e+28
-7.21083e+28
-9.56376e+28
-1.18971e+29
-7.79104e+27
-2.57046e+28
-4.62349e+28
-6.89516e+28
-9.29123e+28
-1.17404e+29
-1.41258e+29
-6.95078e+27
-2.342e+28
-4.28796e+28
-6.49567e+28
-8.88777e+28
-1.1409e+29
-1.39365e+29
-1.64017e+29
-6.03112e+27
-2.09003e+28
-3.90842e+28
-6.02743e+28
-8.37716e+28
-1.09177e+29
-1.35449e+29
-1.61817e+29
-1.87137e+29
-5.0338e+27
-1.81416e+28
-3.48965e+28
-5.49741e+28
-7.77858e+28
-1.02968e+29
-1.29685e+29
-1.5733e+29
-1.84608e+29
-2.1088e+29
-3.95339e+27
-1.51496e+28
-3.03089e+28
-4.91229e+28
-7.10048e+28
-9.56892e+28
-1.22401e+29
-1.50719e+29
-1.79538e+29
-2.08043e+29
-2.3515e+29
-2.7916e+27
-1.19077e+28
-2.53327e+28
-4.27081e+28
-6.35127e+28
-8.7436e+28
-1.13857e+29
-1.42371e+29
-1.72111e+29
-2.02425e+29
-2.31983e+29
-2.60225e+29
-1.54276e+27
-8.42172e+27
-1.9939e+28
-3.57481e+28
-5.52925e+28
-7.83092e+28
-1.0416e+29
-1.32577e+29
-1.6273e+29
-1.94187e+29
-2.25803e+29
-2.56752e+29
-2.85993e+29
-2.09091e+26
-4.67404e+27
-1.41395e+28
-2.82012e+28
-4.637e+28
-6.82867e+28
-9.34246e+28
-1.21448e+29
-1.51716e+29
-1.83788e+29
-2.16788e+29
-2.50047e+29
-2.82189e+29
-3.12759e+29
1.21609e+27
-6.72088e+26
-7.90326e+27
-2.00861e+28
-3.6691e+28
-5.74024e+28
-8.16253e+28
-1.09115e+29
-1.39185e+29
-1.7157e+29
-2.05401e+29
-2.40259e+29
-2.74946e+29
-3.08649e+29
-3.40406e+29
2.73025e+27
3.60494e+27
-1.24462e+27
-1.13579e+28
-2.6282e+28
-4.55897e+28
-6.88038e+28
-9.55452e+28
-1.25284e+29
-1.57656e+29
-1.92013e+29
-2.27902e+29
-2.64419e+29
-3.00905e+29
-3.35962e+29
-3.69259e+29
4.34115e+27
8.14858e+27
5.87276e+27
-2.03923e+27
-1.50843e+28
-3.28838e+28
-5.48821e+28
-8.0791e+28
-1.09974e+29
-1.422e+29
-1.76748e+29
-2.13363e+29
-2.51124e+29
-2.89645e+29
-3.27701e+29
-3.64508e+29
-3.99196e+29
6.04573e+27
1.2983e+28
1.34329e+28
7.92326e+27
-3.12878e+27
-1.92121e+28
-3.99042e+28
-6.47624e+28
-9.33153e+28
-1.25161e+29
-1.5977e+29
-1.96765e+29
-2.35469e+29
-2.75431e+29
-3.15744e+29
-3.55772e+29
-3.94107e+29
-4.3057e+29
7.85377e+27
1.80981e+28
2.1478e+28
1.85043e+28
9.65415e+27
-4.6148e+27
-2.3784e+28
-4.75129e+28
-7.5208e+28
-1.06606e+29
-1.41033e+29
-1.78283e+29
-2.17574e+29
-2.58682e+29
-3.00644e+29
-3.43122e+29
-3.84877e+29
-4.25172e+29
-4.6324e+29
9.76312e+27
2.35242e+28
2.99891e+28
2.97658e+28
2.32304e+28
1.09951e+28
-6.57116e+27
-2.89434e+28
-5.57153e+28
-8.64267e+28
-1.20613e+29
-1.57861e+29
-1.97622e+29
-2.39512e+29
-2.82836e+29
-3.27157e+29
-3.71572e+29
-4.15492e+29
-4.575e+29
-4.97608e+29
1.1785e+28
2.92539e+28
3.90189e+28
4.16781e+28
3.7681e+28
2.75731e+28
1.18378e+28
-9.11326e+27
-3.47256e+28
-6.4696e+28
-9.83927e+28
-1.35589e+29
-1.75552e+29
-2.1811e+29
-2.62429e+29
-3.08314e+29
-3.54775e+29
-4.01538e+29
-4.47348e+29
-4.91562e+29
-5.33527e+29
1.39169e+28
3.53217e+28
4.85526e+28
5.43183e+28
5.29661e+28
4.5221e+28
3.13891e+28
1.20977e+28
-1.23081e+28
-4.12898e+28
-7.44546e+28
-1.11336e+29
-1.5146e+29
-1.94407e+29
-2.39614e+29
-2.86693e+29
-3.34933e+29
-3.83929e+29
-4.32782e+29
-4.80987e+29
-5.27141e+29
-5.71413e+29
1.61726e+28
4.17193e+28
5.86505e+28
6.76623e+28
6.91867e+28
6.38871e+28
5.22035e+28
3.46254e+28
1.16733e+28
-1.62881e+28
-4.8664e+28
-8.51989e+28
-1.2521e+29
-1.68511e+29
-2.14316e+29
-2.62486e+29
-3.12136e+29
-3.63112e+29
-4.14397e+29
-4.65813e+29
-5.16117e+29
-5.64731e+29
-6.11111e+29
1.85508e+28
4.84891e+28
6.92958e+28
8.17982e+28
8.63097e+28
8.36976e+28
7.42192e+28
5.8611e+28
3.71449e+28
1.04618e+28
-2.11105e+28
-5.70303e+28
-9.69081e+28
-1.40276e+29
-1.86651e+29
-2.35612e+29
-2.86574e+29
-3.39161e+29
-3.92638e+29
-4.46669e+29
-5.00373e+29
-5.53312e+29
-6.04104e+29
-6.53074e+29
2.10665e+28
5.56256e+28
8.05619e+28
9.66986e+28
1.0445e+29
1.04609e+29
9.75863e+28
8.39808e+28
6.4267e+28
3.88755e+28
8.37346e+27
-2.69311e+28
-6.63972e+28
-1.0982e+29
-1.56467e+29
-2.06194e+29
-2.58161e+29
-3.12266e+29
-3.6757e+29
-4.23989e+29
-4.805e+29
-5.36999e+29
-5.9226e+29
-6.45798e+29
-6.9712e+29
2.37178e+28
6.31759e+28
9.24371e+28
1.1247e+29
1.23571e+29
1.26766e+29
1.22253e+29
1.1091e+29
9.29556e+28
6.91334e+28
3.96941e+28
5.28203e+27
-3.37885e+28
-7.69763e+28
-1.23894e+29
-1.74077e+29
-2.27028e+29
-2.82334e+29
-3.39377e+29
-3.97822e+29
-4.56927e+29
-5.1641e+29
-5.75411e+29
-6.33588e+29
-6.89548e+29
-7.43731e+29
2.65225e+28
7.11323e+28
1.05002e+29
1.29093e+29
1.43812e+29
1.5012e+29
1.48389e+29
1.39337e+29
1.2341e+29
1.0114e+29
7.30503e+28
3.95047e+28
1.11533e+27
-4.18674e+28
-8.87559e+28
-1.39399e+29
-1.93015e+29
-2.49503e+29
-3.07962e+29
-3.68351e+29
-4.29691e+29
-4.91958e+29
-5.54129e+29
-6.16197e+29
-6.76937e+29
-7.35933e+29
-7.92678e+29
2.94793e+28
7.95498e+28
1.18242e+29
1.46684e+29
1.65144e+29
1.74844e+29
1.75937e+29
1.69461e+29
1.55558e+29
1.35119e+29
1.08336e+29
7.59552e+28
3.82007e+28
-4.28133e+27
-5.11858e+28
-1.0198e+29
-1.56272e+29
-2.1361e+29
-2.73471e+29
-3.3547e+29
-3.9897e+29
-4.63665e+29
-5.28815e+29
-5.94226e+29
-6.59031e+29
-7.22986e+29
-7.84631e+29
-8.44465e+29
3.26072e+28
8.84231e+28
1.32251e+29
1.65217e+29
1.87721e+29
2.00899e+29
2.05104e+29
2.01212e+29
1.89629e+29
1.7099e+29
1.458e+29
1.14517e+29
7.77036e+28
3.56581e+28
-1.09587e+28
-6.19608e+28
-1.16611e+29
-1.74818e+29
-2.35738e+29
-2.99334e+29
-3.64656e+29
-4.31705e+29
-4.99484e+29
-5.6805e+29
-6.36379e+29
-7.04546e+29
-7.713e+29
-8.3625e+29
-8.9879e+29
3.59034e+28
9.78109e+28
1.47017e+29
1.8483e+29
2.11506e+29
2.28478e+29
2.35842e+29
2.34831e+29
2.2554e+29
2.09007e+29
1.85351e+29
1.55461e+29
1.19498e+29
7.82056e+28
3.17925e+28
-1.91048e+28
-7.41846e+28
-1.32931e+29
-1.94935e+29
-2.59777e+29
-3.26911e+29
-3.95973e+29
-4.66308e+29
-5.37683e+29
-6.09346e+29
-6.81202e+29
-7.52344e+29
-8.22601e+29
-8.9038e+29
-9.56145e+29
3.93895e+28
1.07703e+29
1.62641e+29
2.055e+29
2.36679e+29
2.57532e+29
2.68379e+29
2.70261e+29
2.63567e+29
2.49081e+29
2.27272e+29
1.98689e+29
1.63877e+29
1.23224e+29
7.73394e+28
2.64462e+28
-2.87438e+28
-8.81119e+28
-1.50865e+29
-2.16981e+29
-2.85569e+29
-3.56632e+29
-4.29184e+29
-5.03292e+29
-5.77949e+29
-6.53298e+29
-7.28302e+29
-8.03094e+29
-8.7635e+29
-9.47629e+29
-1.01617e+30
4.30619e+28
1.18166e+29
1.79103e+29
2.27376e+29
2.63209e+29
2.88284e+29
3.02656e+29
3.07769e+29
3.03643e+29
2.91518e+29
2.71462e+29
2.44511e+29
2.10735e+29
1.71031e+29
1.25536e+29
7.49805e+28
1.95616e+28
-4.01018e+28
-1.03698e+29
-1.70746e+29
-2.4082e+29
-3.13523e+29
-3.88279e+29
-4.64784e+29
-5.42355e+29
-6.20859e+29
-6.99516e+29
-7.78325e+29
-8.56298e+29
-9.33277e+29
-1.0075e+30
-1.07934e+30
4.69427e+28
1.29187e+29
1.96517e+29
2.50421e+29
2.91288e+29
3.20692e+29
3.3894e+29
3.47282e+29
3.46072e+29
3.36244e+29
3.18262e+29
2.92816e+29
2.60409e+29
2.21512e+29
1.76722e+29
1.26343e+29
7.10347e+28
1.09422e+28
-5.31669e+28
-1.21249e+29
-1.92464e+29
-2.66838e+29
-3.43439e+29
-4.22327e+29
-5.02485e+29
-5.84056e+29
-6.6603e+29
-7.48628e+29
-8.30784e+29
-9.12632e+29
-9.9275e+29
-1.07063e+30
-1.14517e+30
5.10255e+28
1.40835e+29
2.14859e+29
2.74805e+29
3.20867e+29
3.54996e+29
3.77178e+29
3.89112e+29
3.90771e+29
3.83599e+29
3.67587e+29
3.43977e+29
3.12776e+29
2.75029e+29
2.30774e+29
1.80895e+29
1.25513e+29
6.53378e+28
5.66327e+26
-6.82153e+28
-1.40682e+29
-2.16383e+29
-2.94861e+29
-3.75775e+29
-4.58503e+29
-5.42825e+29
-6.28021e+29
-7.14075e+29
-8.00155e+29
-8.86333e+29
-9.71512e+29
-1.05553e+30
-1.13634e+30
-1.21414e+30
5.53314e+28
1.53089e+29
2.34248e+29
3.00485e+29
3.52167e+29
3.91133e+29
4.17656e+29
4.33195e+29
4.38095e+29
4.33489e+29
4.19816e+29
3.97901e+29
3.68244e+29
3.31453e+29
2.88081e+29
2.38506e+29
1.83377e+29
1.22915e+29
5.78308e+28
-1.1812e+28
-8.51973e+28
-1.62339e+29
-2.42354e+29
-3.25323e+29
-4.10276e+29
-4.97327e+29
-5.85446e+29
-6.74847e+29
-7.64524e+29
-8.54737e+29
-9.44406e+29
-1.03364e+30
-1.1208e+30
-1.20529e+30
-1.28567e+30
5.9848e+28
1.66014e+29
2.54643e+29
3.27635e+29
3.85132e+29
4.29377e+29
4.60298e+29
4.79864e+29
4.87968e+29
4.86312e+29
4.74843e+29
4.55003e+29
4.26712e+29
3.91221e+29
3.48505e+29
2.9959e+29
2.44493e+29
1.84075e+29
1.18452e+29
4.83006e+28
-2.61766e+28
-1.04428e+29
-1.86097e+29
-2.70789e+29
-3.57993e+29
-4.47444e+29
-5.3846e+29
-6.30928e+29
-7.24078e+29
-8.18005e+29
-9.11823e+29
-1.00568e+30
-1.09827e+30
-1.18938e+30
-1.27672e+30
-1.36025e+30
6.45902e+28
1.79572e+29
2.76161e+29
3.56194e+29
4.19988e+29
4.69654e+29
5.05429e+29
5.29029e+29
5.40772e+29
5.41983e+29
5.33108e+29
5.15168e+29
4.88628e+29
4.54224e+29
4.12513e+29
3.64002e+29
3.09295e+29
2.48676e+29
1.82847e+29
1.11945e+29
3.67263e+28
-4.2815e+28
-1.25815e+29
-2.12346e+29
-3.01482e+29
-3.93352e+29
-4.86957e+29
-5.82463e+29
-6.78832e+29
-7.76329e+29
-8.73979e+29
-9.72079e+29
-1.06945e+30
-1.16614e+30
-1.26033e+30
-1.35128e+30
-1.4372e+30
6.95304e+28
1.9381e+29
2.98731e+29
3.86332e+29
4.56655e+29
5.12248e+29
5.52962e+29
5.8107e+29
5.96401e+29
6.00931e+29
5.94519e+29
5.78877e+29
5.53869e+29
5.20949e+29
4.79992e+29
4.32238e+29
3.77633e+29
3.17178e+29
2.50873e+29
1.79552e+29
1.03334e+29
2.28497e+28
-6.16679e+28
-1.49724e+29
-2.40907e+29
-3.34895e+29
-4.31103e+29
-5.29363e+29
-6.28915e+29
-7.29759e+29
-8.31078e+29
-9.33107e+29
-1.03481e+30
-1.13643e+30
-1.2364e+30
-1.3345e+30
-1.42814e+30
-1.51707e+30
7.46576e+28
2.08646e+29
3.22443e+29
4.17948e+29
4.95357e+29
5.57058e+29
6.03236e+29
6.35882e+29
6.5529e+29
6.63035e+29
6.59548e+29
6.46029e+29
6.22958e+29
5.9126e+29
5.5146e+29
5.04179e+29
4.50032e+29
3.89424e+29
3.23009e+29
2.5098e+29
1.74089e+29
9.23929e+28
6.69473e+27
-8.30743e+28
-1.76007e+29
-2.7222e+29
-3.70754e+29
-4.71772e+29
-5.74259e+29
-6.78403e+29
-7.83204e+29
-8.88974e+29
-9.94713e+29
-1.10074e+30
-1.2058e+30
-1.30984e+30
-1.41087e+30
-1.50799e+30
-1.59908e+30
7.9846e+28
2.24066e+29
3.47162e+29
4.5118e+29
5.35966e+29
6.04367e+29
6.56129e+29
6.93864e+29
7.1732e+29
7.28785e+29
7.28064e+29
7.17145e+29
6.95785e+29
6.65724e+29
6.26774e+29
5.80377e+29
5.26368e+29
4.65965e+29
3.99094e+29
3.26724e+29
2.48852e+29
1.66263e+29
7.91067e+28
-1.20508e+28
-1.06919e+29
-2.05081e+29
-3.06039e+29
-4.09568e+29
-5.14982e+29
-6.22218e+29
-7.30443e+29
-8.39804e+29
-9.49364e+29
-1.05951e+30
-1.16907e+30
-1.27832e+30
-1.38551e+30
-1.49032e+30
-1.58989e+30
-1.68386e+30
8.47588e+28
2.39796e+29
3.72904e+29
4.85845e+29
5.78671e+29
6.54017e+29
7.11986e+29
7.54872e+29
7.82944e+29
7.98046e+29
8.00609e+29
7.92078e+29
7.72916e+29
7.44222e+29
7.06542e+29
6.60681e+29
6.07224e+29
5.46676e+29
4.79704e+29
4.06622e+29
3.2813e+29
2.44328e+29
1.56019e+29
6.31929e+28
-3.33067e+28
-1.33595e+29
-2.3673e+29
-3.42853e+29
-4.50984e+29
-5.61289e+29
-6.72775e+29
-7.85659e+29
-8.98927e+29
-1.01294e+30
-1.12671e+30
-1.24055e+30
-1.3531e+30
-1.46423e+30
-1.57174e+30
-1.67466e+30
-1.77061e+30
9.16762e+28
2.55832e+29
3.99352e+29
5.22018e+29
6.23255e+29
7.06261e+29
7.70623e+29
8.19315e+29
8.52003e+29
8.71332e+29
8.77035e+29
8.71425e+29
8.54195e+29
8.27365e+29
7.90636e+29
7.45739e+29
6.92445e+29
6.32168e+29
5.64713e+29
4.91273e+29
4.11767e+29
3.27104e+29
2.37311e+29
1.43105e+29
4.46939e+28
-5.74405e+28
-1.62919e+29
-2.71422e+29
-3.82337e+29
-4.95541e+29
-6.10249e+29
-7.2654e+29
-8.43437e+29
-9.61259e+29
-1.07897e+30
-1.19708e+30
-1.31429e+30
-1.43093e+30
-1.54498e+30
-1.65612e+30
-1.76129e+30
-1.85995e+30
9.93845e+28
2.76076e+29
4.27045e+29
5.59381e+29
6.69872e+29
7.6085e+29
8.32359e+29
8.86985e+29
9.24966e+29
9.48463e+29
9.57912e+29
9.55025e+29
9.40269e+29
9.14986e+29
8.79714e+29
8.35418e+29
7.82714e+29
7.22283e+29
6.5476e+29
5.80552e+29
5.00377e+29
4.14443e+29
3.23503e+29
2.27581e+29
1.27522e+29
2.32696e+28
-8.43034e+28
-1.95335e+29
-3.08859e+29
-4.25009e+29
-5.42818e+29
-6.6246e+29
-7.82922e+29
-9.04455e+29
-1.02607e+30
-1.14816e+30
-1.26974e+30
-1.39111e+30
-1.51081e+30
-1.62866e+30
-1.74229e+30
-1.85061e+30
-1.95106e+30
1.07516e+29
2.9844e+29
4.60302e+29
5.9899e+29
7.18252e+29
8.18028e+29
8.9692e+29
9.58272e+29
1.00161e+30
1.02997e+30
1.04305e+30
1.04351e+30
1.03097e+30
1.00779e+30
9.73599e+29
9.30418e+29
8.77895e+29
8.1774e+29
7.49685e+29
6.75122e+29
5.93842e+29
5.0697e+29
4.14458e+29
3.17139e+29
2.15097e+29
1.0896e+29
-9.69053e+26
-1.14317e+29
-2.30579e+29
-3.49544e+29
-4.70477e+29
-5.93397e+29
-7.1735e+29
-8.42584e+29
-9.68002e+29
-1.09409e+30
-1.2197e+30
-1.34549e+30
-1.47001e+30
-1.59364e+30
-1.71419e+30
-1.83125e+30
-1.9416e+30
-2.0446e+30
1.15803e+29
3.21967e+29
4.96698e+29
6.45043e+29
7.69775e+29
8.77557e+29
9.64649e+29
1.03288e+30
1.08239e+30
1.11562e+30
1.13304e+30
1.13666e+30
1.12697e+30
1.10558e+30
1.07304e+30
1.03055e+30
9.7873e+29
9.18401e+29
8.50239e+29
7.74826e+29
6.92844e+29
6.04579e+29
5.10809e+29
4.11661e+29
3.07927e+29
1.99577e+29
8.74887e+28
-2.8418e+28
-1.47249e+29
-2.69131e+29
-3.93107e+29
-5.19303e+29
-6.46729e+29
-7.7557e+29
-9.04835e+29
-1.0348e+30
-1.16449e+30
-1.29436e+30
-1.42337e+30
-1.55189e+30
-1.67836e+30
-1.8025e+30
-1.9218e+30
-2.03512e+30
-2.13973e+30
1.23999e+29
3.4594e+29
5.34854e+29
6.95078e+29
8.28216e+29
9.41023e+29
1.03535e+30
1.11125e+30
1.16699e+30
1.20594e+30
1.22762e+30
1.23515e+30
1.22806e+30
1.20912e+30
1.17785e+30
1.13663e+30
1.08503e+30
1.02505e+30
9.56287e+29
8.80442e+29
7.97232e+29
7.07966e+29
6.12466e+29
5.1178e+29
4.05918e+29
2.95614e+29
1.8105e+29
6.27382e+28
-5.88816e+28
-1.8356e+29
-3.10652e+29
-4.40096e+29
-5.70965e+29
-7.0345e+29
-8.3645e+29
-9.7038e+29
-1.10403e+30
-1.23806e+30
-1.3712e+30
-1.50428e+30
-1.63572e+30
-1.7659e+30
-1.89247e+30
-2.015e+30
-2.13012e+30
-2.23718e+30
1.31799e+29
3.69565e+29
5.73758e+29
7.47405e+29
8.9135e+29
1.01163e+30
1.11064e+30
1.1932e+30
1.25597e+30
1.3006e+30
1.3274e+30
1.33869e+30
1.33497e+30
1.31815e+30
1.28883e+30
1.24844e+30
1.19764e+30
1.13748e+30
1.06864e+30
9.91842e+29
9.07808e+29
8.16991e+29
7.20132e+29
6.17427e+29
5.09695e+29
3.9701e+29
2.80186e+29
1.59174e+29
3.48672e+28
-9.2798e+28
-2.2294e+29
-3.5567e+29
-4.90011e+29
-6.26081e+29
-7.62909e+29
-9.00681e+29
-1.03844e+30
-1.17648e+30
-1.31387e+30
-1.45111e+30
-1.58718e+30
-1.7224e+30
-1.85515e+30
-1.98509e+30
-2.1096e+30
-2.22753e+30
-2.33607e+30
1.38947e+29
3.92228e+29
6.12126e+29
8.00744e+29
9.57259e+29
1.08764e+30
1.19306e+30
1.28022e+30
1.34913e+30
1.40024e+30
1.43206e+30
1.44798e+30
1.4474e+30
1.43349e+30
1.40572e+30
1.36685e+30
1.31636e+30
1.25661e+30
1.18712e+30
1.10987e+30
1.02446e+30
9.32476e+29
8.33685e+29
7.29307e+29
6.19222e+29
5.04372e+29
3.84873e+29
2.61328e+29
1.34065e+29
3.45931e+27
-1.2989e+29
-2.65898e+29
-4.03714e+29
-5.43455e+29
-6.84024e+29
-8.25784e+29
-9.675e+29
-1.10976e+30
-1.25125e+30
-1.3928e+30
-1.5331e+30
-1.673e+30
-1.81088e+30
-1.94709e+30
-2.07921e+30
-2.20674e+30
-2.32628e+30
-2.43714e+30
1.45261e+29
4.13201e+29
6.49071e+29
8.5349e+29
1.02451e+30
1.16685e+30
1.28143e+30
1.37424e+30
1.44769e+30
1.50467e+30
1.5423e+30
1.56267e+30
1.56611e+30
1.55481e+30
1.52939e+30
1.49159e+30
1.4421e+30
1.38222e+30
1.31265e+30
1.23435e+30
1.14805e+30
1.05432e+30
9.53958e+29
8.47325e+29
7.35194e+29
6.17703e+29
4.95695e+29
3.69223e+29
2.39114e+29
1.05332e+29
-3.12406e+28
-1.70646e+29
-3.1199e+29
-4.55369e+29
-5.99821e+29
-7.45457e+29
-8.91329e+29
-1.03765e+30
-1.18347e+30
-1.32919e+30
-1.47387e+30
-1.61805e+30
-1.76067e+30
-1.90211e+30
-2.04061e+30
-2.17587e+30
-2.30515e+30
-2.42731e+30
-2.5396e+30
1.50523e+29
4.31958e+29
6.83489e+29
9.04473e+29
1.09114e+30
1.24775e+30
1.37354e+30
1.47482e+30
1.55287e+30
1.61471e+30
1.65793e+30
1.68356e+30
1.69075e+30
1.68297e+30
1.65952e+30
1.6236e+30
1.5746e+30
1.51527e+30
1.44503e+30
1.36624e+30
1.2784e+30
1.18341e+30
1.08087e+30
9.72312e+29
8.57547e+29
7.3768e+29
6.12701e+29
4.83412e+29
3.50088e+29
2.13177e+29
7.3182e+28
-6.97011e+28
-2.14654e+29
-3.61783e+29
-5.10051e+29
-6.59758e+29
-8.09652e+29
-9.60276e+29
-1.11027e+30
-1.26042e+30
-1.40934e+30
-1.55797e+30
-1.70495e+30
-1.85118e+30
-1.99499e+30
-2.13673e+30
-2.27391e+30
-2.40598e+30
-2.52961e+30
-2.64424e+30
1.54648e+29
4.47927e+29
7.14605e+29
9.52231e+29
1.15583e+30
1.32812e+30
1.46769e+30
1.57961e+30
1.66534e+30
1.73087e+30
1.77912e+30
1.81042e+30
1.8222e+30
1.81759e+30
1.79703e+30
1.76254e+30
1.71483e+30
1.6555e+30
1.58528e+30
1.50537e+30
1.41654e+30
1.31959e+30
1.21533e+30
1.10423e+30
9.87111e+29
8.64284e+29
7.36541e+29
6.03996e+29
4.67502e+29
3.27129e+29
1.83689e+29
3.71707e+28
-1.1154e+29
-2.62459e+29
-4.14717e+29
-5.68393e+29
-7.22555e+29
-8.77327e+29
-1.03177e+30
-1.18619e+30
-1.33965e+30
-1.4926e+30
-1.64409e+30
-1.79475e+30
-1.94344e+30
-2.09058e+30
-2.23432e+30
-2.3744e+30
-2.50803e+30
-2.63421e+30
-2.7502e+30
1.57553e+29
4.60858e+29
7.41516e+29
9.9581e+29
1.21677e+30
1.40649e+30
1.56152e+30
1.68701e+30
1.78253e+30
1.85499e+30
1.90597e+30
1.94272e+30
1.96019e+30
1.95963e+30
1.94153e+30
1.9094e+30
1.86248e+30
1.80394e+30
1.73312e+30
1.65276e+30
1.56228e+30
1.46391e+30
1.35721e+30
1.24397e+30
1.12388e+30
9.98325e+29
8.67246e+29
7.3159e+29
5.91514e+29
4.47652e+29
3.00473e+29
1.50225e+29
-2.35707e+27
-1.57284e+29
-3.1353e+29
-4.71407e+29
-6.29706e+29
-7.88916e+29
-9.47644e+29
-1.10665e+30
-1.26449e+30
-1.42206e+30
-1.57796e+30
-1.7332e+30
-1.88639e+30
-2.03847e+30
-2.18772e+30
-2.33444e+30
-2.47622e+30
-2.61253e+30
-2.74003e+30
-2.85837e+30
1.59253e+29
4.70469e+29
7.63749e+29
1.034e+30
1.27286e+30
1.48079e+30
1.65342e+30
1.7943e+30
1.90289e+30
1.98455e+30
2.04146e+30
2.07994e+30
2.10333e+30
2.10878e+30
2.09406e+30
2.0638e+30
2.01859e+30
1.96028e+30
1.88965e+30
1.80819e+30
1.71669e+30
1.61619e+30
1.50755e+30
1.39146e+30
1.26875e+30
1.13985e+30
1.0056e+30
8.66286e+29
7.22699e+29
5.74975e+29
4.23948e+29
2.69722e+29
1.13097e+29
-4.59035e+28
-2.06426e+29
-3.68463e+29
-5.31184e+29
-6.94675e+29
-8.58019e+29
-1.02142e+30
-1.18398e+30
-1.34603e+30
-1.50664e+30
-1.66638e+30
-1.82422e+30
-1.9809e+30
-2.13516e+30
-2.28749e+30
-2.436e+30
-2.58052e+30
-2.71818e+30
-2.84817e+30
-2.96789e+30
1.59841e+29
4.76822e+29
7.80843e+29
1.06613e+30
1.32256e+30
1.54968e+30
1.74105e+30
1.89987e+30
2.02357e+30
2.11785e+30
2.18313e+30
2.22673e+30
2.25062e+30
2.26263e+30
2.25425e+30
2.22684e+30
2.18278e+30
2.12564e+30
2.05456e+30
1.97277e+30
1.87956e+30
1.77756e+30
1.66624e+30
1.54774e+30
1.42168e+30
1.28974e+30
1.15171e+30
1.00883e+30
8.61214e+29
7.09616e+29
5.54413e+29
3.96017e+29
2.35147e+29
7.18236e+28
-9.29958e+28
-2.59545e+29
-4.26612e+29
-5.94717e+29
-7.62498e+29
-9.30668e+29
-1.09776e+30
-1.26463e+30
-1.42983e+30
-1.59435e+30
-1.7568e+30
-1.91819e+30
-2.07716e+30
-2.23457e+30
-2.3888e+30
-2.54012e+30
-2.6861e+30
-2.82633e+30
-2.95758e+30
-3.07969e+30
1.5953e+29
4.80021e+29
7.92845e+29
1.09149e+30
1.36509e+30
1.61134e+30
1.82297e+30
2.00106e+30
2.14283e+30
2.25199e+30
2.32934e+30
2.38048e+30
2.40846e+30
2.41982e+30
2.41856e+30
2.3981e+30
2.3562e+30
2.29961e+30
2.22903e+30
2.14622e+30
2.05205e+30
1.94781e+30
1.8344e+30
1.71273e+30
1.58373e+30
1.44801e+30
1.30644e+30
1.1594e+30
1.00776e+30
8.51812e+29
6.9233e+29
5.29484e+29
3.6409e+29
1.96293e+29
2.68497e+28
-1.44188e+29
-3.16016e+29
-4.88629e+29
-6.6122e+29
-8.33964e+29
-1.00597e+30
-1.17749e+30
-1.34762e+30
-1.51684e+30
-1.68415e+30
-1.85024e+30
-2.014e+30
-2.17622e+30
-2.33561e+30
-2.49276e+30
-2.64561e+30
-2.79421e+30
-2.93567e+30
-3.06939e+30
-3.19291e+30
1.58564e+29
4.80577e+29
7.99849e+29
1.11002e+30
1.39941e+30
1.66483e+30
1.89695e+30
2.09634e+30
2.25774e+30
2.3852e+30
2.47692e+30
2.53963e+30
2.57414e+30
2.58859e+30
2.58529e+30
2.57279e+30
2.53839e+30
2.48342e+30
2.41265e+30
2.32977e+30
2.2339e+30
2.12815e+30
2.01186e+30
1.88758e+30
1.75485e+30
1.61569e+30
1.46985e+30
1.31881e+30
1.1626e+30
1.00221e+30
8.38012e+29
6.70521e+29
5.00375e+29
3.27735e+29
1.53567e+29
-2.23601e+28
-1.98884e+29
-3.76472e+29
-5.53746e+29
-7.31467e+29
-9.08191e+29
-1.08475e+30
-1.25966e+30
-1.4339e+30
-1.60601e+30
-1.77704e+30
-1.9456e+30
-2.11269e+30
-2.27701e+30
-2.4394e+30
-2.59818e+30
-2.7537e+30
-2.90361e+30
-3.04758e+30
-3.18253e+30
-3.30851e+30
1.57284e+29
4.7917e+29
8.02502e+29
1.12181e+30
1.42535e+30
1.70882e+30
1.96189e+30
2.18317e+30
2.36666e+30
2.51421e+30
2.62416e+30
2.70091e+30
2.74626e+30
2.76622e+30
2.76481e+30
2.74891e+30
2.72313e+30
2.67656e+30
2.6067e+30
2.52302e+30
2.42637e+30
2.31833e+30
2.19987e+30
2.07217e+30
1.93621e+30
1.79282e+30
1.64296e+30
1.48722e+30
1.32648e+30
1.16114e+30
9.92045e+29
8.19528e+29
6.44334e+29
4.66679e+29
2.87328e+29
1.06459e+29
-7.5231e+28
-2.57697e+29
-4.40165e+29
-6.2272e+29
-8.04587e+29
-9.85998e+29
-1.16607e+30
-1.3452e+30
-1.52242e+30
-1.69835e+30
-1.87193e+30
-2.04393e+30
-2.21318e+30
-2.38062e+30
-2.54473e+30
-2.70629e+30
-2.86317e+30
-3.0156e+30
-3.16073e+30
-3.29818e+30
-3.42555e+30
1.56054e+29
4.76648e+29
8.01777e+29
1.12763e+30
1.44289e+30
1.74303e+30
2.01621e+30
2.26026e+30
2.46673e+30
2.6373e+30
2.7675e+30
2.86249e+30
2.92127e+30
2.95143e+30
2.95442e+30
2.93904e+30
2.90837e+30
2.87128e+30
2.81063e+30
2.72729e+30
2.62911e+30
2.51967e+30
2.39821e+30
2.26775e+30
2.12772e+30
1.98053e+30
1.82589e+30
1.6656e+30
1.49967e+30
1.32933e+30
1.15486e+30
9.77018e+29
7.9645e+29
6.13385e+29
4.28733e+29
2.4238e+29
5.55127e+28
-1.3236e+29
-3.199e+29
-5.07835e+29
-6.94698e+29
-8.81388e+29
-1.06645e+30
-1.25083e+30
-1.43307e+30
-1.61418e+30
-1.79278e+30
-1.96986e+30
-2.14413e+30
-2.31658e+30
-2.48585e+30
-2.65282e+30
-2.81583e+30
-2.97528e+30
-3.12892e+30
-3.27655e+30
-3.41518e+30
-3.54512e+30
1.55383e+29
4.74151e+29
7.99113e+29
1.1286e+30
1.45295e+30
1.76725e+30
2.05949e+30
2.32567e+30
2.55652e+30
2.75121e+30
2.90513e+30
3.02058e+30
3.09749e+30
3.14047e+30
3.15273e+30
3.14057e+30
3.10907e+30
3.06534e+30
3.01507e+30
2.94201e+30
2.84343e+30
2.73182e+30
2.60823e+30
2.47415e+30
2.33065e+30
2.17885e+30
2.01973e+30
1.85416e+30
1.68307e+30
1.5071e+30
1.32711e+30
1.14353e+30
9.57169e+29
7.68427e+29
5.77978e+29
3.86073e+29
1.93409e+29
1.53959e+26
-1.93037e+29
-3.86213e+29
-5.7864e+29
-7.7047e+29
-9.60945e+29
-1.15044e+30
-1.33803e+30
-1.52427e+30
-1.70811e+30
-1.89031e+30
-2.06974e+30
-2.24731e+30
-2.42168e+30
-2.59391e+30
-2.76241e+30
-2.92808e+30
-3.08877e+30
-3.24491e+30
-3.39362e+30
-3.53484e+30
-3.66622e+30
1.55772e+29
4.73077e+29
7.96347e+29
1.12675e+30
1.45677e+30
1.78245e+30
2.09128e+30
2.37886e+30
2.63368e+30
2.85438e+30
3.03338e+30
3.1733e+30
3.27068e+30
3.33167e+30
3.35603e+30
3.35223e+30
3.32253e+30
3.27647e+30
3.21775e+30
3.15593e+30
3.06875e+30
2.95615e+30
2.82962e+30
2.69275e+30
2.54491e+30
2.38899e+30
2.2246e+30
2.05395e+30
1.87701e+30
1.69533e+30
1.50922e+30
1.31962e+30
1.12712e+30
9.32172e+29
7.35715e+29
5.37669e+29
3.39186e+29
1.3986e+29
-5.8931e+28
-2.57965e+29
-4.55813e+29
-6.53358e+29
-8.49124e+29
-1.04414e+30
-1.23697e+30
-1.42864e+30
-1.61772e+30
-1.80523e+30
-1.98988e+30
-2.17266e+30
-2.35226e+30
-2.52966e+30
-2.70354e+30
-2.87477e+30
-3.04176e+30
-3.20497e+30
-3.36221e+30
-3.51349e+30
-3.65592e+30
-3.78989e+30
4.74887e+29
1.57957e+29
7.95634e+29
1.12444e+30
1.45675e+30
1.78997e+30
2.11254e+30
2.41905e+30
2.69751e+30
2.94405e+30
3.15052e+30
3.31658e+30
3.43893e+30
3.52053e+30
3.56248e+30
3.57006e+30
3.54763e+30
3.50197e+30
3.4392e+30
3.36711e+30
3.29193e+30
3.19203e+30
3.06374e+30
2.92328e+30
2.77186e+30
2.61096e+30
2.4417e+30
2.2652e+30
2.08248e+30
1.89444e+30
1.702e+30
1.50586e+30
1.3068e+30
1.10536e+30
9.02243e+29
6.97899e+29
4.92917e+29
2.87538e+29
8.23991e+28
-1.22426e+29
-3.26335e+29
-5.29461e+29
-7.31087e+29
-9.31529e+29
-1.12998e+30
-1.32701e+30
-1.52158e+30
-1.71443e+30
-1.90444e+30
-2.09255e+30
-2.27741e+30
-2.46016e+30
-2.63928e+30
-2.816e+30
-2.98861e+30
-3.15819e+30
-3.32252e+30
-3.48228e+30
-3.63466e+30
-3.7797e+30
-3.91513e+30
7.99369e+29
4.81526e+29
1.6194e+29
1.12464e+30
1.45573e+30
1.79255e+30
2.12468e+30
2.44722e+30
2.74692e+30
3.01935e+30
3.25337e+30
3.44851e+30
3.59774e+30
3.70501e+30
3.76736e+30
3.79233e+30
3.78019e+30
3.74077e+30
3.67671e+30
3.59872e+30
3.51118e+30
3.42425e+30
3.30996e+30
3.16709e+30
3.0113e+30
2.8461e+30
2.67112e+30
2.48906e+30
2.29983e+30
2.10537e+30
1.90599e+30
1.70295e+30
1.49688e+30
1.28838e+30
1.07839e+30
8.66991e+29
6.55401e+29
4.4321e+29
2.31769e+29
2.03614e+28
-1.8954e+29
-3.98895e+29
-6.06267e+29
-8.12684e+29
-1.0167e+30
-1.21942e+30
-1.41947e+30
-1.61787e+30
-1.81333e+30
-2.00684e+30
-2.19713e+30
-2.38519e+30
-2.56975e+30
-2.75177e+30
-2.92997e+30
-3.10523e+30
-3.27599e+30
-3.44285e+30
-3.60372e+30
-3.75868e+30
-3.90494e+30
-4.04299e+30
1.1307e+30
8.10532e+29
4.92988e+29
1.67129e+29
1.45752e+30
1.79354e+30
2.13069e+30
2.46481e+30
2.78282e+30
3.07888e+30
3.34086e+30
3.56543e+30
3.74512e+30
3.88011e+30
3.9686e+30
4.01381e+30
4.01865e+30
3.9885e+30
3.92936e+30
3.84841e+30
3.75303e+30
3.65143e+30
3.5509e+30
3.42358e+30
3.26454e+30
3.0943e+30
2.91418e+30
2.72575e+30
2.53015e+30
2.32859e+30
2.12207e+30
1.91158e+30
1.69798e+30
1.48205e+30
1.26449e+30
1.04587e+30
8.26807e+29
6.07734e+29
3.89166e+29
1.71237e+29
-4.54764e+28
-2.61003e+29
-4.74764e+29
-6.87076e+29
-8.97172e+29
-1.10558e+30
-1.3114e+30
-1.51538e+30
-1.71643e+30
-1.91548e+30
-2.11122e+30
-2.30479e+30
-2.49471e+30
-2.68227e+30
-2.86583e+30
-3.04676e+30
-3.22326e+30
-3.3966e+30
-3.56457e+30
-3.72796e+30
-3.88402e+30
-4.03293e+30
-4.17244e+30
1.46627e+30
1.14642e+30
8.29065e+29
5.07732e+29
1.73061e+29
1.79744e+30
2.13443e+30
2.475e+30
2.80658e+30
3.12341e+30
3.41125e+30
3.66606e+30
3.87681e+30
4.04376e+30
4.16066e+30
4.23249e+30
4.25729e+30
4.24358e+30
4.19259e+30
4.11516e+30
4.01484e+30
3.90335e+30
3.78576e+30
3.673e+30
3.53102e+30
3.35681e+30
3.17086e+30
2.97651e+30
2.77379e+30
2.56511e+30
2.35083e+30
2.13253e+30
1.91093e+30
1.68689e+30
1.46144e+30
1.23478e+30
1.00813e+30
7.81224e+29
5.55487e+29
3.30161e+29
1.06698e+29
-1.15831e+29
-3.35947e+29
-5.54774e+29
-7.70916e+29
-9.85487e+29
-1.19712e+30
-1.40691e+30
-1.61365e+30
-1.81833e+30
-2.01969e+30
-2.21874e+30
-2.41426e+30
-2.60723e+30
-2.79641e+30
-2.98276e+30
-3.165e+30
-3.34412e+30
-3.51861e+30
-3.68909e+30
-3.85357e+30
-4.01225e+30
-4.16237e+30
-4.30453e+30
1.80912e+30
1.4865e+30
1.1717e+30
8.52647e+29
5.24366e+29
1.79232e+29
2.141e+30
2.48204e+30
2.82164e+30
3.15413e+30
3.46515e+30
3.7482e+30
3.99134e+30
4.19115e+30
4.34129e+30
4.44237e+30
4.49405e+30
4.50009e+30
4.46485e+30
4.39426e+30
4.29595e+30
4.17748e+30
4.0476e+30
3.91529e+30
3.7886e+30
3.63314e+30
3.44234e+30
3.24145e+30
3.03192e+30
2.81545e+30
2.59323e+30
2.36657e+30
2.13642e+30
1.90387e+30
1.6697e+30
1.43474e+30
1.19957e+30
9.64749e+29
7.30808e+29
4.98057e+29
2.66936e+29
3.74529e+28
-1.89844e+29
-4.15192e+29
-6.37963e+29
-8.58717e+29
-1.07658e+30
-1.2923e+30
-1.50489e+30
-1.71535e+30
-1.92236e+30
-2.12712e+30
-2.32814e+30
-2.52678e+30
-2.72141e+30
-2.91346e+30
-3.10116e+30
-3.28609e+30
-3.4664e+30
-3.64342e+30
-3.81499e+30
-3.98202e+30
-4.14179e+30
-4.29461e+30
-4.43821e+30
2.1559e+30
1.83387e+30
1.51806e+30
1.20362e+30
8.78962e+29
5.41521e+29
1.85217e+29
2.49172e+30
2.8326e+30
3.17483e+30
3.50364e+30
3.81234e+30
4.08598e+30
4.32055e+30
4.50514e+30
4.641e+30
4.72241e+30
4.75578e+30
4.73972e+30
4.6843e+30
4.59136e+30
4.4732e+30
4.33417e+30
4.187e+30
4.038e+30
3.89851e+30
3.72819e+30
3.52166e+30
3.30479e+30
3.08068e+30
2.84991e+30
2.61453e+30
2.37536e+30
2.13359e+30
1.89037e+30
1.64612e+30
1.40221e+30
1.15844e+30
9.16249e+29
6.74977e+29
4.36167e+29
1.98806e+29
-3.56513e+28
-2.68323e+29
-4.9778e+29
-7.25248e+29
-9.49425e+29
-1.17142e+30
-1.39005e+30
-1.60638e+30
-1.81926e+30
-2.02969e+30
-2.2365e+30
-2.44065e+30
-2.64102e+30
-2.83854e+30
-3.03201e+30
-3.22246e+30
-3.40863e+30
-3.5915e+30
-3.76962e+30
-3.94372e+30
-4.11183e+30
-4.27427e+30
-4.42828e+30
-4.57451e+30
2.51007e+30
2.18508e+30
1.87152e+30
1.55759e+30
1.23892e+30
9.05911e+29
5.57848e+29
1.90643e+29
2.84577e+30
3.19032e+30
3.53057e+30
3.85937e+30
4.1611e+30
4.42873e+30
4.65025e+30
4.82238e+30
4.9398e+30
5.0036e+30
5.015e+30
4.97832e+30
4.89956e+30
4.78539e+30
4.64478e+30
4.48606e+30
4.31954e+30
4.15484e+30
4.00101e+30
3.81682e+30
3.59336e+30
3.36119e+30
3.12186e+30
2.87725e+30
2.62851e+30
2.37712e+30
2.12395e+30
1.87016e+30
1.61639e+30
1.36348e+30
1.1119e+30
8.62073e+29
6.14435e+29
3.69146e+29
1.26608e+29
-1.13412e+29
-3.50318e+29
-5.84622e+29
-8.15583e+29
-1.04402e+30
-1.26895e+30
-1.49142e+30
-1.71019e+30
-1.92656e+30
-2.13904e+30
-2.34905e+30
-2.55495e+30
-2.75827e+30
-2.95724e+30
-3.1535e+30
-3.34522e+30
-3.534e+30
-3.71799e+30
-3.89865e+30
-4.07382e+30
-4.24452e+30
-4.40803e+30
-4.56473e+30
-4.71241e+30
2.86773e+30
2.54364e+30
2.22836e+30
1.91812e+30
1.60094e+30
1.27468e+30
9.31309e+29
5.7242e+29
1.95159e+29
3.20733e+30
3.55102e+30
3.89321e+30
4.21732e+30
4.51578e+30
4.77277e+30
4.9843e+30
5.13957e+30
5.24082e+30
5.28308e+30
5.27412e+30
5.21344e+30
5.11253e+30
4.97422e+30
4.81188e+30
4.63127e+30
4.44612e+30
4.26389e+30
4.09671e+30
3.89742e+30
3.65782e+30
3.40961e+30
3.15558e+30
2.89686e+30
2.63511e+30
2.37167e+30
2.10727e+30
1.84343e+30
1.58014e+30
1.31901e+30
1.05941e+30
8.02903e+29
5.48527e+29
2.97822e+29
4.95572e+28
-1.94881e+29
-4.36728e+29
-6.7467e+29
-9.09938e+29
-1.14142e+30
-1.37022e+30
-1.59521e+30
-1.81747e+30
-2.03596e+30
-2.25164e+30
-2.46344e+30
-2.67231e+30
-2.87712e+30
-3.07891e+30
-3.27648e+30
-3.47084e+30
-3.66077e+30
-3.84732e+30
-4.02905e+30
-4.20678e+30
-4.37854e+30
-4.54471e+30
-4.70262e+30
-4.85298e+30
3.23301e+30
2.90558e+30
2.5923e+30
2.28137e+30
1.96883e+30
1.64439e+30
1.3081e+30
9.53571e+29
5.84242e+29
1.98479e+29
3.57213e+30
3.91911e+30
4.25858e+30
4.58207e+30
4.87251e+30
5.12225e+30
5.31914e+30
5.46012e+30
5.54099e+30
5.56351e+30
5.53054e+30
5.44707e+30
5.3208e+30
5.1591e+30
4.97257e+30
4.7706e+30
4.56486e+30
4.36594e+30
4.18394e+30
3.9705e+30
3.71387e+30
3.45023e+30
3.18114e+30
2.90873e+30