/*--------------------------------*- C++ -*----------------------------------*\
  =========                 |
  \\      /  F ield         | OpenFOAM: The Open Source CFD Toolbox
   \\    /   O peration     | Website:  https://openfoam.org
    \\  /    A nd           | Version:  12
     \\/     M anipulation  |
\*---------------------------------------------------------------------------*/
FoamFile
{
    format      ascii;
    class       surfaceScalarField;
    location    "0.2";
    object      phi;
}
// * * * * * * * * * * * * * * * * * * * * * * * * * * * * * * * * * * * * * //

dimensions      [1 0 -1 0 0 0 0];

internalField   nonuniform List<scalar> 
999
(
2.02683e-10
2.19831e-10
2.46555e-10
2.45027e-10
2.23885e-10
2.37171e-10
2.67034e-10
2.6664e-10
2.79522e-10
2.86304e-10
2.87259e-10
3.05976e-10
3.25996e-10
3.34162e-10
3.39578e-10
3.15174e-10
2.83213e-10
2.677e-10
2.66806e-10
2.68249e-10
2.70906e-10
2.86588e-10
2.92253e-10
2.60694e-10
2.35647e-10
2.42974e-10
2.38087e-10
2.0019e-10
1.61577e-10
1.45988e-10
1.46247e-10
1.47194e-10
1.20517e-10
1.24524e-10
1.30229e-10
1.15697e-10
9.25261e-11
5.67818e-11
1.4903e-11
-3.26751e-11
-6.18491e-11
-6.54216e-11
-8.41904e-11
-1.44865e-10
-1.87365e-10
-2.0314e-10
-2.10138e-10
-2.09023e-10
-2.14667e-10
-2.29233e-10
-2.32944e-10
-2.3035e-10
-2.35135e-10
-2.74517e-10
-2.92883e-10
-3.33062e-10
-3.48287e-10
-3.35625e-10
-3.34632e-10
-3.35357e-10
-3.22132e-10
-3.1374e-10
-3.16026e-10
-3.02728e-10
-2.89542e-10
-2.90744e-10
-3.07073e-10
-3.10732e-10
-3.08408e-10
-2.95526e-10
-2.74861e-10
-2.66394e-10
-2.7468e-10
-2.94485e-10
-3.15207e-10
-3.25135e-10
-3.10312e-10
-2.73967e-10
-2.67419e-10
-2.79382e-10
-2.87456e-10
-2.85067e-10
-2.86409e-10
-2.93921e-10
-3.16384e-10
-3.1735e-10
-2.88001e-10
-2.64983e-10
-2.66155e-10
-2.80809e-10
-2.7464e-10
-2.53586e-10
-2.63525e-10
-2.51228e-10
-2.19291e-10
-2.21152e-10
-2.54748e-10
-2.7459e-10
-2.76676e-10
-2.61129e-10
-2.58661e-10
-2.66823e-10
-2.69389e-10
-2.58843e-10
-2.58284e-10
-2.68511e-10
-2.92924e-10
-3.06844e-10
-3.11458e-10
-2.88729e-10
-2.12408e-10
-1.32365e-10
-9.74339e-11
-9.28315e-11
-1.10504e-10
-1.45353e-10
-1.84764e-10
-2.02043e-10
-2.08713e-10
-2.21733e-10
-2.39923e-10
-2.52355e-10
-2.58353e-10
-2.52299e-10
-2.3476e-10
-2.23506e-10
-2.05356e-10
-1.54887e-10
-1.30192e-10
-1.15411e-10
-1.1225e-10
-1.31298e-10
-1.40183e-10
-1.31892e-10
-1.2336e-10
-1.25357e-10
-1.37235e-10
-1.62231e-10
-1.63013e-10
-1.54264e-10
-1.586e-10
-1.87931e-10
-2.27706e-10
-2.74373e-10
-3.19361e-10
-3.49923e-10
-3.5889e-10
-3.56874e-10
-3.5885e-10
-3.65377e-10
-3.63025e-10
-3.39913e-10
-3.34046e-10
-3.51541e-10
-3.50897e-10
-3.42677e-10
-3.67718e-10
-3.82956e-10
-3.78635e-10
-3.59495e-10
-3.51864e-10
-3.63258e-10
-3.57946e-10
-3.5942e-10
-3.82107e-10
-4.00534e-10
-4.06893e-10
-4.04503e-10
-3.76421e-10
-3.72404e-10
-4.10238e-10
-4.169e-10
-4.17963e-10
-4.46737e-10
-4.56602e-10
-4.46347e-10
-4.57389e-10
-4.4568e-10
-3.89646e-10
-3.6591e-10
-3.57857e-10
-3.5789e-10
-3.75735e-10
-3.70729e-10
-3.59468e-10
-3.67525e-10
-3.78654e-10
-3.59013e-10
-2.8384e-10
-1.90932e-10
-7.98847e-11
-9.31333e-12
4.13054e-11
1.16923e-10
1.98687e-10
2.53172e-10
2.76501e-10
2.79675e-10
2.80206e-10
3.03368e-10
3.21996e-10
3.41498e-10
3.85508e-10
4.02187e-10
4.13303e-10
4.41311e-10
4.49188e-10
4.59475e-10
4.96321e-10
5.37137e-10
5.86919e-10
6.0868e-10
6.15056e-10
6.38104e-10
6.74772e-10
6.79062e-10
6.58037e-10
6.57086e-10
6.6395e-10
6.67521e-10
6.60465e-10
6.56261e-10
6.65676e-10
6.64043e-10
6.35667e-10
6.03855e-10
5.69806e-10
5.47218e-10
5.22509e-10
5.059e-10
4.91346e-10
4.97125e-10
5.04979e-10
4.99757e-10
4.63845e-10
4.17958e-10
3.70961e-10
3.34657e-10
3.22961e-10
3.19676e-10
5.23021e-10
2.76546e-08
6.69349e-07
5.40659e-06
2.21559e-05
6.161e-05
0.00013659
0.000262357
0.000456246
0.000736764
0.00112254
0.00163125
0.0022787
0.00307802
0.00403916
0.00516866
0.00646963
0.00794198
0.00958273
0.0113865
0.0133461
0.0154528
0.0176968
0.0200679
0.0225557
0.0251496
0.0278394
0.0306153
0.0334681
0.0363888
0.0393694
0.0424023
0.0454807
0.0485981
0.0517487
0.0549274
0.0581293
0.0613502
0.0645861
0.0678336
0.0710893
0.0743505
0.0776146
0.0808793
0.0841424
0.0874021
0.0906566
0.0939044
0.0971441
0.100374
0.103594
0.106803
0.109999
0.113181
0.11635
0.119504
0.122642
0.125765
0.128871
0.13196
0.135032
0.138086
0.141122
0.14414
0.147139
0.150119
0.153081
0.156023
0.158945
0.161848
0.164731
0.167594
0.170437
0.17326
0.176063
0.178845
0.181607
0.184349
0.18707
0.189771
0.192451
0.195111
0.19775
0.200368
0.202966
0.205544
0.208101
0.210637
0.213153
0.215648
0.218123
0.220578
0.223012
0.225425
0.227819
0.230192
0.232544
0.234877
0.237189
0.239482
0.241754
0.244006
0.246239
0.248451
0.250644
0.252817
0.25497
0.257103
0.259217
0.261312
0.263387
0.265442
0.267479
0.269496
0.271494
0.273473
0.275433
0.277373
0.279295
0.281199
0.283083
0.284949
0.286796
0.288625
0.290435
0.292227
0.294001
0.295756
0.297493
0.299213
0.300914
0.302597
0.304263
0.305911
0.307541
0.309154
0.310749
0.312326
0.313887
0.31543
0.316956
0.318464
0.319956
0.321431
0.322889
0.32433
0.325754
0.327162
0.328553
0.329928
0.331286
0.332628
0.333954
0.335264
0.336557
0.337835
0.339096
0.340342
0.341572
0.342786
0.343985
0.345168
0.346335
0.347488
0.348624
0.349746
0.350853
0.351944
0.353021
0.354082
0.355129
0.356161
0.357178
0.358181
0.359169
0.360142
0.361101
0.362046
0.362977
0.363893
0.364796
0.365684
0.366559
0.367419
0.368266
0.369099
0.369918
0.370724
0.371517
0.372295
0.373061
0.373813
0.374552
0.375278
0.375991
0.376691
0.377378
0.378052
0.378713
0.379362
0.379998
0.380621
0.381232
0.381831
0.382417
0.382991
0.383552
0.384102
0.384639
0.385165
0.385678
0.38618
0.38667
0.387148
0.387614
0.388069
0.388513
0.388945
0.389365
0.389774
0.390172
0.390559
0.390935
0.391299
0.391653
0.391996
0.392327
0.392648
0.392959
0.393259
0.393548
0.393826
0.394095
0.394352
0.3946
0.394837
0.395064
0.395281
0.395488
0.395686
0.395873
0.39605
0.396217
0.396373
0.396516
0.396643
0.396746
0.396819
0.396859
0.39687
0.396869
0.396857
0.396839
0.396832
0.396829
0.396827
0.396824
0.39682
0.396816
0.396812
0.396809
0.396807
0.396804
0.396802
0.396801
0.396799
0.396797
0.396796
0.396795
0.396794
0.396793
0.396792
0.396791
0.396791
0.39679
0.396789
0.396788
0.396788
0.396787
0.396786
0.396786
0.396785
0.396784
0.396783
0.396783
0.396782
0.396782
0.396781
0.39678
0.396779
0.396779
0.396778
0.396777
0.396777
0.396776
0.396775
0.396775
0.396774
0.396774
0.396773
0.396772
0.396772
0.396771
0.39677
0.39677
0.396769
0.396768
0.396768
0.396767
0.396766
0.396765
0.396765
0.396764
0.396763
0.396763
0.396762
0.396761
0.39676
0.39676
0.396759
0.396758
0.396757
0.396756
0.396756
0.396755
0.396754
0.396753
0.396752
0.396751
0.39675
0.396749
0.396749
0.396748
0.396747
0.396746
0.396745
0.396744
0.396743
0.396741
0.39674
0.396739
0.396738
0.396737
0.396736
0.396735
0.396733
0.396732
0.396731
0.39673
0.396729
0.396727
0.396726
0.396724
0.396723
0.396722
0.39672
0.396718
0.396717
0.396715
0.396713
0.396712
0.39671
0.396709
0.396707
0.396705
0.396704
0.396702
0.3967
0.396698
0.396696
0.396694
0.396692
0.39669
0.396688
0.396685
0.396683
0.39668
0.396677
0.396674
0.396672
0.396669
0.396666
0.396663
0.39666
0.396657
0.396654
0.396651
0.396648
0.396645
0.396641
0.396637
0.396634
0.39663
0.396626
0.396621
0.396617
0.396612
0.396607
0.396602
0.396596
0.39659
0.396584
0.396578
0.396572
0.396565
0.396558
0.39655
0.396542
0.396534
0.396525
0.396515
0.396505
0.396494
0.396482
0.396469
0.396454
0.396437
0.396417
0.396393
0.396362
0.396322
0.396268
0.396195
0.396094
0.395952
0.395755
0.395481
0.395102
0.394583
0.393879
0.392935
0.391688
0.390065
0.387983
0.385358
0.382102
0.378137
0.373395
0.367831
0.361429
0.354209
0.346236
0.337615
0.328495
0.319062
0.309528
0.300121
0.291067
0.282578
0.274838
0.267989
0.262125
0.257285
0.253456
0.250574
0.248533
0.247195
0.246407
0.246014
0.245865
0.245833
0.245831
0.245832
0.245837
0.245848
0.245863
0.245882
0.245902
0.245921
0.245937
0.24595
0.245961
0.245969
0.245975
0.24598
0.245984
0.245987
0.245989
0.245992
0.245993
0.245995
0.245996
0.245997
0.245997
0.245998
0.245998
0.245999
0.245999
0.245999
0.245999
0.245999
0.245999
0.245999
0.245999
0.245999
0.245999
0.245999
0.245999
0.245999
0.245999
0.245999
0.245999
0.245999
0.245999
0.245999
0.245999
0.245999
0.245999
0.245998
0.245998
0.245998
0.245998
0.245998
0.245998
0.245998
0.245998
0.245998
0.245998
0.245998
0.245998
0.245998
0.245998
0.245998
0.245998
0.245998
0.245998
0.245998
0.245998
0.245998
0.245998
0.245998
0.245998
0.245998
0.245998
0.245998
0.245998
0.245998
0.245998
0.245998
0.245998
0.245998
0.245999
0.245999
0.245999
0.245999
0.245999
0.245999
0.245999
0.245999
0.245999
0.245999
0.245999
0.245999
0.245999
0.245999
0.245999
0.245999
0.245999
0.245999
0.245999
0.245999
0.245999
0.245999
0.245999
0.245999
0.245999
0.245999
0.246
0.246
0.246
0.246
0.246
0.246
0.246
0.246
0.246
0.246
0.246
0.246
0.246
0.246
0.246
0.246
0.246
0.246
0.246
0.246
0.246
0.246
0.246
0.246
0.246
0.245998
0.245998
0.245994
0.245991
0.245979
0.245967
0.24593
0.245879
0.245747
0.245548
0.245051
0.244277
0.242435
0.239413
0.232769
0.220894
0.196742
0.148072
0.0653322
0.00638306
5.7814e-05
2.29831e-08
5.01937e-11
4.39326e-11
4.22755e-11
3.98802e-11
3.57656e-11
3.19483e-11
3.06469e-11
3.26262e-11
4.02248e-11
4.66979e-11
4.75348e-11
4.71048e-11
4.56393e-11
4.29363e-11
3.8873e-11
3.29854e-11
3.33726e-11
3.71424e-11
3.91098e-11
4.25757e-11
4.30706e-11
4.00194e-11
3.97031e-11
4.23923e-11
4.75002e-11
4.94823e-11
5.1333e-11
5.28957e-11
5.50571e-11
5.46632e-11
4.9778e-11
4.39593e-11
4.19058e-11
4.27231e-11
4.46864e-11
4.68113e-11
4.97109e-11
5.02459e-11
5.06987e-11
5.14457e-11
5.15384e-11
5.45392e-11
5.69865e-11
5.64281e-11
5.22704e-11
4.97011e-11
4.82664e-11
4.76037e-11
4.93405e-11
5.71029e-11
6.5951e-11
7.32803e-11
7.55326e-11
7.94064e-11
8.25201e-11
8.46375e-11
8.52762e-11
8.4156e-11
7.99096e-11
7.26978e-11
7.12089e-11
7.31562e-11
7.33787e-11
7.19944e-11
7.10104e-11
7.31059e-11
7.4295e-11
7.12226e-11
7.05268e-11
7.01467e-11
7.00914e-11
7.42466e-11
7.60754e-11
7.77599e-11
7.92988e-11
7.69116e-11
7.13397e-11
6.60578e-11
6.55062e-11
7.15844e-11
7.5162e-11
7.51811e-11
7.39406e-11
7.31324e-11
7.15879e-11
7.12636e-11
7.07743e-11
7.06102e-11
7.17971e-11
7.27923e-11
7.25298e-11
6.9775e-11
6.64148e-11
6.02897e-11
5.19521e-11
4.5762e-11
4.19164e-11
4.16995e-11
4.50609e-11
4.83225e-11
4.88542e-11
4.80397e-11
4.85557e-11
4.98433e-11
4.86785e-11
4.59738e-11
4.60798e-11
4.58719e-11
4.36176e-11
4.21184e-11
4.17212e-11
4.36731e-11
5.11876e-11
5.54059e-11
5.53676e-11
5.5806e-11
5.80311e-11
5.79177e-11
5.58815e-11
5.36604e-11
4.86059e-11
4.02723e-11
3.88129e-11
3.99148e-11
4.1021e-11
3.97889e-11
3.75076e-11
3.63679e-11
3.41333e-11
3.10524e-11
2.76422e-11
2.78038e-11
2.98448e-11
2.99903e-11
2.83636e-11
2.6683e-11
2.50567e-11
2.25437e-11
2.24855e-11
2.71909e-11
2.85797e-11
2.73884e-11
2.72226e-11
2.62315e-11
2.65551e-11
)
;

boundaryField
{
    sides
    {
        type            calculated;
        value           nonuniform List<scalar> 2(3.00124e-11 -1.70793e-10);
    }
    empty
    {
        type            empty;
    }
}


// ************************************************************************* //
