/*--------------------------------*- C++ -*----------------------------------*\
  =========                 |
  \\      /  F ield         | OpenFOAM: The Open Source CFD Toolbox
   \\    /   O peration     | Website:  https://openfoam.org
    \\  /    A nd           | Version:  12
     \\/     M anipulation  |
\*---------------------------------------------------------------------------*/
FoamFile
{
    format      ascii;
    class       volVectorField;
    location    "0.2";
    object      U;
}
// * * * * * * * * * * * * * * * * * * * * * * * * * * * * * * * * * * * * * //

dimensions      [0 1 -1 0 0 0 0];

internalField   nonuniform List<vector> 
1000
(
(1.64821e-10 0 0)
(2.02193e-10 0 0)
(2.41659e-10 0 0)
(2.68029e-10 0 0)
(2.49291e-10 0 0)
(2.15787e-10 0 0)
(2.3517e-10 0 0)
(2.59557e-10 0 0)
(2.83757e-10 0 0)
(2.79158e-10 0 0)
(2.66402e-10 0 0)
(2.93345e-10 0 0)
(3.24417e-10 0 0)
(3.33888e-10 0 0)
(3.37542e-10 0 0)
(3.18918e-10 0 0)
(2.88218e-10 0 0)
(2.69722e-10 0 0)
(2.668e-10 0 0)
(2.72185e-10 0 0)
(2.60073e-10 0 0)
(2.69419e-10 0 0)
(3.0048e-10 0 0)
(2.67643e-10 0 0)
(2.37646e-10 0 0)
(2.33893e-10 0 0)
(2.40494e-10 0 0)
(2.13469e-10 0 0)
(1.80496e-10 0 0)
(1.46011e-10 0 0)
(1.48175e-10 0 0)
(1.66063e-10 0 0)
(1.42484e-10 0 0)
(1.13149e-10 0 0)
(1.25588e-10 0 0)
(1.17667e-10 0 0)
(9.71692e-11 0 0)
(7.50821e-11 0 0)
(3.98643e-11 0 0)
(-5.8432e-12 0 0)
(-5.23591e-11 0 0)
(-8.02195e-11 0 0)
(-7.72895e-11 0 0)
(-1.20119e-10 0 0)
(-1.58633e-10 0 0)
(-1.83819e-10 0 0)
(-1.99674e-10 0 0)
(-2.1139e-10 0 0)
(-2.12723e-10 0 0)
(-2.14938e-10 0 0)
(-2.22451e-10 0 0)
(-2.30526e-10 0 0)
(-2.3282e-10 0 0)
(-2.539e-10 0 0)
(-2.86798e-10 0 0)
(-3.16364e-10 0 0)
(-3.48998e-10 0 0)
(-3.41373e-10 0 0)
(-3.24247e-10 0 0)
(-3.3398e-10 0 0)
(-3.40408e-10 0 0)
(-2.98105e-10 0 0)
(-3.1734e-10 0 0)
(-3.09743e-10 0 0)
(-2.77393e-10 0 0)
(-2.70904e-10 0 0)
(-3.11411e-10 0 0)
(-3.24079e-10 0 0)
(-3.05159e-10 0 0)
(-2.99736e-10 0 0)
(-2.79874e-10 0 0)
(-2.75103e-10 0 0)
(-2.76846e-10 0 0)
(-2.7484e-10 0 0)
(-2.94186e-10 0 0)
(-3.16937e-10 0 0)
(-3.25652e-10 0 0)
(-3.21468e-10 0 0)
(-2.72513e-10 0 0)
(-2.68153e-10 0 0)
(-2.79453e-10 0 0)
(-2.82966e-10 0 0)
(-2.89006e-10 0 0)
(-2.88295e-10 0 0)
(-3.12847e-10 0 0)
(-3.17084e-10 0 0)
(-2.82951e-10 0 0)
(-2.77981e-10 0 0)
(-2.62139e-10 0 0)
(-2.66075e-10 0 0)
(-2.75324e-10 0 0)
(-2.69886e-10 0 0)
(-2.56502e-10 0 0)
(-2.47421e-10 0 0)
(-2.32316e-10 0 0)
(-2.17623e-10 0 0)
(-2.25108e-10 0 0)
(-2.81649e-10 0 0)
(-2.92953e-10 0 0)
(-2.64046e-10 0 0)
(-2.59273e-10 0 0)
(-2.63755e-10 0 0)
(-2.65587e-10 0 0)
(-2.60615e-10 0 0)
(-2.56242e-10 0 0)
(-2.56568e-10 0 0)
(-2.86991e-10 0 0)
(-2.96323e-10 0 0)
(-2.9349e-10 0 0)
(-2.85875e-10 0 0)
(-2.35393e-10 0 0)
(-1.92005e-10 0 0)
(-1.31772e-10 0 0)
(-9.07217e-11 0 0)
(-8.8926e-11 0 0)
(-1.31233e-10 0 0)
(-1.7885e-10 0 0)
(-1.95597e-10 0 0)
(-2.00624e-10 0 0)
(-2.13068e-10 0 0)
(-2.30774e-10 0 0)
(-2.39717e-10 0 0)
(-2.50832e-10 0 0)
(-2.57514e-10 0 0)
(-2.34341e-10 0 0)
(-2.24283e-10 0 0)
(-2.01479e-10 0 0)
(-1.679e-10 0 0)
(-1.45786e-10 0 0)
(-1.36184e-10 0 0)
(-1.0289e-10 0 0)
(-1.16445e-10 0 0)
(-1.43194e-10 0 0)
(-1.36085e-10 0 0)
(-1.26259e-10 0 0)
(-1.24102e-10 0 0)
(-1.29034e-10 0 0)
(-1.53358e-10 0 0)
(-1.59725e-10 0 0)
(-1.56067e-10 0 0)
(-1.58442e-10 0 0)
(-1.66584e-10 0 0)
(-2.02775e-10 0 0)
(-2.51202e-10 0 0)
(-2.9527e-10 0 0)
(-3.2049e-10 0 0)
(-3.53939e-10 0 0)
(-3.5515e-10 0 0)
(-3.4784e-10 0 0)
(-3.50763e-10 0 0)
(-3.59952e-10 0 0)
(-3.54103e-10 0 0)
(-3.38055e-10 0 0)
(-3.4533e-10 0 0)
(-3.60872e-10 0 0)
(-3.38222e-10 0 0)
(-3.44554e-10 0 0)
(-3.70847e-10 0 0)
(-3.83135e-10 0 0)
(-3.60852e-10 0 0)
(-3.48372e-10 0 0)
(-3.6105e-10 0 0)
(-3.7306e-10 0 0)
(-3.67086e-10 0 0)
(-3.67437e-10 0 0)
(-3.90099e-10 0 0)
(-3.98815e-10 0 0)
(-3.9845e-10 0 0)
(-3.88538e-10 0 0)
(-3.66408e-10 0 0)
(-4.03966e-10 0 0)
(-4.38339e-10 0 0)
(-4.19706e-10 0 0)
(-4.37123e-10 0 0)
(-4.45186e-10 0 0)
(-4.43967e-10 0 0)
(-4.45691e-10 0 0)
(-4.43134e-10 0 0)
(-4.1495e-10 0 0)
(-3.83473e-10 0 0)
(-3.6094e-10 0 0)
(-3.48226e-10 0 0)
(-3.75656e-10 0 0)
(-3.83914e-10 0 0)
(-3.56715e-10 0 0)
(-3.52974e-10 0 0)
(-3.69596e-10 0 0)
(-3.72944e-10 0 0)
(-3.18766e-10 0 0)
(-2.44865e-10 0 0)
(-1.25354e-10 0 0)
(-1.78306e-11 0 0)
(3.38854e-12 0 0)
(7.58681e-11 0 0)
(1.78084e-10 0 0)
(2.15904e-10 0 0)
(2.59334e-10 0 0)
(2.81191e-10 0 0)
(2.7699e-10 0 0)
(2.91117e-10 0 0)
(3.06606e-10 0 0)
(3.29153e-10 0 0)
(3.65382e-10 0 0)
(4.18495e-10 0 0)
(4.06752e-10 0 0)
(4.23113e-10 0 0)
(4.46433e-10 0 0)
(4.57384e-10 0 0)
(4.76768e-10 0 0)
(5.11232e-10 0 0)
(5.66643e-10 0 0)
(6.02819e-10 0 0)
(6.12829e-10 0 0)
(6.19731e-10 0 0)
(6.48494e-10 0 0)
(6.76268e-10 0 0)
(6.59291e-10 0 0)
(6.53949e-10 0 0)
(6.69169e-10 0 0)
(6.64761e-10 0 0)
(6.4987e-10 0 0)
(6.46452e-10 0 0)
(6.64065e-10 0 0)
(6.69768e-10 0 0)
(6.39409e-10 0 0)
(6.14817e-10 0 0)
(5.79115e-10 0 0)
(5.3659e-10 0 0)
(5.28572e-10 0 0)
(5.10749e-10 0 0)
(5.02736e-10 0 0)
(5.00482e-10 0 0)
(4.9947e-10 0 0)
(4.94535e-10 0 0)
(4.72506e-10 0 0)
(4.31297e-10 0 0)
(4.02514e-10 0 0)
(3.593e-10 0 0)
(3.39438e-10 0 0)
(3.1898e-10 0 0)
(3.72815e-10 0 0)
(9.68131e-09 0 0)
(2.8349e-07 0 0)
(2.82522e-06 0 0)
(1.35554e-05 0 0)
(4.17947e-05 0 0)
(9.9075e-05 0 0)
(0.000199282 0 0)
(0.000358614 0 0)
(0.000594907 0 0)
(0.000926682 0 0)
(0.00137213 0 0)
(0.00194816 0 0)
(0.00266954 0 0)
(0.00354832 0 0)
(0.00459347 0 0)
(0.00581071 0 0)
(0.00720262 0 0)
(0.00876894 0 0)
(0.0105069 0 0)
(0.0124115 0 0)
(0.0144764 0 0)
(0.0166939 0 0)
(0.0190554 0 0)
(0.0215521 0 0)
(0.0241748 0 0)
(0.0269145 0 0)
(0.0297623 0 0)
(0.0327098 0 0)
(0.0357489 0 0)
(0.038872 0 0)
(0.0420721 0 0)
(0.0453427 0 0)
(0.0486778 0 0)
(0.0520718 0 0)
(0.0555197 0 0)
(0.0590169 0 0)
(0.0625593 0 0)
(0.066143 0 0)
(0.0697645 0 0)
(0.0734208 0 0)
(0.0771091 0 0)
(0.0808266 0 0)
(0.0845711 0 0)
(0.0883406 0 0)
(0.092133 0 0)
(0.0959465 0 0)
(0.0997798 0 0)
(0.103631 0 0)
(0.107499 0 0)
(0.111383 0 0)
(0.115282 0 0)
(0.119194 0 0)
(0.123119 0 0)
(0.127055 0 0)
(0.131003 0 0)
(0.134961 0 0)
(0.138928 0 0)
(0.142905 0 0)
(0.14689 0 0)
(0.150883 0 0)
(0.154884 0 0)
(0.158892 0 0)
(0.162907 0 0)
(0.166928 0 0)
(0.170955 0 0)
(0.174988 0 0)
(0.179026 0 0)
(0.183069 0 0)
(0.187117 0 0)
(0.19117 0 0)
(0.195227 0 0)
(0.199289 0 0)
(0.203354 0 0)
(0.207423 0 0)
(0.211496 0 0)
(0.215572 0 0)
(0.219652 0 0)
(0.223735 0 0)
(0.227821 0 0)
(0.231909 0 0)
(0.236001 0 0)
(0.240095 0 0)
(0.244192 0 0)
(0.248291 0 0)
(0.252393 0 0)
(0.256496 0 0)
(0.260602 0 0)
(0.264711 0 0)
(0.268821 0 0)
(0.272933 0 0)
(0.277047 0 0)
(0.281163 0 0)
(0.285281 0 0)
(0.2894 0 0)
(0.293521 0 0)
(0.297644 0 0)
(0.301768 0 0)
(0.305893 0 0)
(0.31002 0 0)
(0.314149 0 0)
(0.318279 0 0)
(0.32241 0 0)
(0.326542 0 0)
(0.330676 0 0)
(0.334811 0 0)
(0.338947 0 0)
(0.343084 0 0)
(0.347222 0 0)
(0.351361 0 0)
(0.355502 0 0)
(0.359643 0 0)
(0.363786 0 0)
(0.367929 0 0)
(0.372073 0 0)
(0.376218 0 0)
(0.380364 0 0)
(0.384511 0 0)
(0.388659 0 0)
(0.392807 0 0)
(0.396957 0 0)
(0.401107 0 0)
(0.405258 0 0)
(0.40941 0 0)
(0.413562 0 0)
(0.417715 0 0)
(0.421869 0 0)
(0.426023 0 0)
(0.430178 0 0)
(0.434334 0 0)
(0.438491 0 0)
(0.442648 0 0)
(0.446805 0 0)
(0.450964 0 0)
(0.455123 0 0)
(0.459282 0 0)
(0.463442 0 0)
(0.467603 0 0)
(0.471764 0 0)
(0.475925 0 0)
(0.480087 0 0)
(0.48425 0 0)
(0.488413 0 0)
(0.492577 0 0)
(0.496741 0 0)
(0.500906 0 0)
(0.505071 0 0)
(0.509236 0 0)
(0.513402 0 0)
(0.517569 0 0)
(0.521736 0 0)
(0.525903 0 0)
(0.530071 0 0)
(0.534239 0 0)
(0.538407 0 0)
(0.542576 0 0)
(0.546746 0 0)
(0.550915 0 0)
(0.555085 0 0)
(0.559256 0 0)
(0.563427 0 0)
(0.567598 0 0)
(0.57177 0 0)
(0.575942 0 0)
(0.580114 0 0)
(0.584287 0 0)
(0.58846 0 0)
(0.592633 0 0)
(0.596807 0 0)
(0.600981 0 0)
(0.605155 0 0)
(0.609329 0 0)
(0.613504 0 0)
(0.61768 0 0)
(0.621855 0 0)
(0.626031 0 0)
(0.630207 0 0)
(0.634384 0 0)
(0.63856 0 0)
(0.642737 0 0)
(0.646914 0 0)
(0.651092 0 0)
(0.65527 0 0)
(0.659448 0 0)
(0.663626 0 0)
(0.667804 0 0)
(0.671983 0 0)
(0.676162 0 0)
(0.680341 0 0)
(0.684521 0 0)
(0.6887 0 0)
(0.69288 0 0)
(0.69706 0 0)
(0.70124 0 0)
(0.705421 0 0)
(0.709601 0 0)
(0.713782 0 0)
(0.717963 0 0)
(0.722144 0 0)
(0.726325 0 0)
(0.730506 0 0)
(0.734688 0 0)
(0.738869 0 0)
(0.743051 0 0)
(0.747233 0 0)
(0.751415 0 0)
(0.755597 0 0)
(0.759778 0 0)
(0.76396 0 0)
(0.768143 0 0)
(0.772325 0 0)
(0.776507 0 0)
(0.780689 0 0)
(0.784871 0 0)
(0.789053 0 0)
(0.793235 0 0)
(0.797417 0 0)
(0.801599 0 0)
(0.805781 0 0)
(0.809962 0 0)
(0.814144 0 0)
(0.818325 0 0)
(0.822507 0 0)
(0.826688 0 0)
(0.830869 0 0)
(0.835049 0 0)
(0.83923 0 0)
(0.84341 0 0)
(0.84759 0 0)
(0.851769 0 0)
(0.855948 0 0)
(0.860127 0 0)
(0.864305 0 0)
(0.868483 0 0)
(0.872661 0 0)
(0.876838 0 0)
(0.881015 0 0)
(0.885193 0 0)
(0.88937 0 0)
(0.893548 0 0)
(0.897726 0 0)
(0.901902 0 0)
(0.906069 0 0)
(0.910209 0 0)
(0.914274 0 0)
(0.918163 0 0)
(0.921682 0 0)
(0.924544 0 0)
(0.926463 0 0)
(0.927385 0 0)
(0.927615 0 0)
(0.927523 0 0)
(0.926917 0 0)
(0.926449 0 0)
(0.926269 0 0)
(0.926197 0 0)
(0.926138 0 0)
(0.926045 0 0)
(0.925922 0 0)
(0.925804 0 0)
(0.925703 0 0)
(0.925617 0 0)
(0.925541 0 0)
(0.925478 0 0)
(0.925425 0 0)
(0.92538 0 0)
(0.925341 0 0)
(0.925307 0 0)
(0.925278 0 0)
(0.925255 0 0)
(0.925236 0 0)
(0.925222 0 0)
(0.92521 0 0)
(0.925199 0 0)
(0.925188 0 0)
(0.925178 0 0)
(0.925168 0 0)
(0.925159 0 0)
(0.925149 0 0)
(0.925141 0 0)
(0.925132 0 0)
(0.925124 0 0)
(0.925117 0 0)
(0.92511 0 0)
(0.925103 0 0)
(0.925096 0 0)
(0.92509 0 0)
(0.925084 0 0)
(0.925078 0 0)
(0.925073 0 0)
(0.925068 0 0)
(0.925063 0 0)
(0.925059 0 0)
(0.925055 0 0)
(0.925052 0 0)
(0.925049 0 0)
(0.925046 0 0)
(0.925042 0 0)
(0.925039 0 0)
(0.925036 0 0)
(0.925033 0 0)
(0.925031 0 0)
(0.925029 0 0)
(0.925028 0 0)
(0.925027 0 0)
(0.925025 0 0)
(0.925024 0 0)
(0.925023 0 0)
(0.925022 0 0)
(0.925021 0 0)
(0.92502 0 0)
(0.925019 0 0)
(0.925019 0 0)
(0.925018 0 0)
(0.925018 0 0)
(0.925017 0 0)
(0.925017 0 0)
(0.925017 0 0)
(0.925016 0 0)
(0.925016 0 0)
(0.925016 0 0)
(0.925016 0 0)
(0.925016 0 0)
(0.925016 0 0)
(0.925016 0 0)
(0.925017 0 0)
(0.925017 0 0)
(0.925017 0 0)
(0.925017 0 0)
(0.925017 0 0)
(0.925017 0 0)
(0.925017 0 0)
(0.925017 0 0)
(0.925016 0 0)
(0.925016 0 0)
(0.925016 0 0)
(0.925015 0 0)
(0.925015 0 0)
(0.925015 0 0)
(0.925015 0 0)
(0.925015 0 0)
(0.925015 0 0)
(0.925015 0 0)
(0.925015 0 0)
(0.925015 0 0)
(0.925015 0 0)
(0.925015 0 0)
(0.925015 0 0)
(0.925015 0 0)
(0.925015 0 0)
(0.925015 0 0)
(0.925015 0 0)
(0.925015 0 0)
(0.925015 0 0)
(0.925015 0 0)
(0.925015 0 0)
(0.925016 0 0)
(0.925016 0 0)
(0.925016 0 0)
(0.925016 0 0)
(0.925016 0 0)
(0.925016 0 0)
(0.925016 0 0)
(0.925016 0 0)
(0.925016 0 0)
(0.925016 0 0)
(0.925016 0 0)
(0.925016 0 0)
(0.925016 0 0)
(0.925016 0 0)
(0.925016 0 0)
(0.925016 0 0)
(0.925016 0 0)
(0.925016 0 0)
(0.925016 0 0)
(0.925017 0 0)
(0.925017 0 0)
(0.925017 0 0)
(0.925017 0 0)
(0.925017 0 0)
(0.925017 0 0)
(0.925017 0 0)
(0.925017 0 0)
(0.925017 0 0)
(0.925017 0 0)
(0.925017 0 0)
(0.925017 0 0)
(0.925017 0 0)
(0.925017 0 0)
(0.925017 0 0)
(0.925017 0 0)
(0.925017 0 0)
(0.925017 0 0)
(0.925017 0 0)
(0.925018 0 0)
(0.925018 0 0)
(0.925018 0 0)
(0.925018 0 0)
(0.925018 0 0)
(0.925018 0 0)
(0.925018 0 0)
(0.925018 0 0)
(0.925018 0 0)
(0.925018 0 0)
(0.925018 0 0)
(0.925018 0 0)
(0.925018 0 0)
(0.925018 0 0)
(0.925018 0 0)
(0.925018 0 0)
(0.925019 0 0)
(0.925019 0 0)
(0.92502 0 0)
(0.92502 0 0)
(0.92502 0 0)
(0.92502 0 0)
(0.92502 0 0)
(0.925019 0 0)
(0.925019 0 0)
(0.925019 0 0)
(0.925019 0 0)
(0.925019 0 0)
(0.925019 0 0)
(0.925019 0 0)
(0.925019 0 0)
(0.925019 0 0)
(0.925019 0 0)
(0.925019 0 0)
(0.925019 0 0)
(0.925019 0 0)
(0.92502 0 0)
(0.92502 0 0)
(0.925021 0 0)
(0.925023 0 0)
(0.925025 0 0)
(0.925029 0 0)
(0.925034 0 0)
(0.925041 0 0)
(0.925051 0 0)
(0.925063 0 0)
(0.925078 0 0)
(0.925095 0 0)
(0.925114 0 0)
(0.925133 0 0)
(0.925151 0 0)
(0.925165 0 0)
(0.925174 0 0)
(0.925176 0 0)
(0.925171 0 0)
(0.925158 0 0)
(0.925139 0 0)
(0.925117 0 0)
(0.925093 0 0)
(0.925072 0 0)
(0.925054 0 0)
(0.92504 0 0)
(0.925032 0 0)
(0.925027 0 0)
(0.925025 0 0)
(0.925024 0 0)
(0.925024 0 0)
(0.925024 0 0)
(0.925024 0 0)
(0.925024 0 0)
(0.925024 0 0)
(0.925024 0 0)
(0.925024 0 0)
(0.925024 0 0)
(0.925024 0 0)
(0.925024 0 0)
(0.925024 0 0)
(0.925025 0 0)
(0.925025 0 0)
(0.925025 0 0)
(0.925025 0 0)
(0.925025 0 0)
(0.925025 0 0)
(0.925025 0 0)
(0.925025 0 0)
(0.925025 0 0)
(0.925025 0 0)
(0.925025 0 0)
(0.925025 0 0)
(0.925025 0 0)
(0.925025 0 0)
(0.925025 0 0)
(0.925025 0 0)
(0.925025 0 0)
(0.925025 0 0)
(0.925025 0 0)
(0.925025 0 0)
(0.925025 0 0)
(0.925025 0 0)
(0.925025 0 0)
(0.925025 0 0)
(0.925025 0 0)
(0.925026 0 0)
(0.925026 0 0)
(0.925026 0 0)
(0.925026 0 0)
(0.925026 0 0)
(0.925026 0 0)
(0.925026 0 0)
(0.925026 0 0)
(0.925026 0 0)
(0.925026 0 0)
(0.925026 0 0)
(0.925026 0 0)
(0.925026 0 0)
(0.925026 0 0)
(0.925027 0 0)
(0.925027 0 0)
(0.925027 0 0)
(0.925027 0 0)
(0.925027 0 0)
(0.925027 0 0)
(0.925027 0 0)
(0.925027 0 0)
(0.925027 0 0)
(0.925027 0 0)
(0.925028 0 0)
(0.925028 0 0)
(0.925028 0 0)
(0.925028 0 0)
(0.925028 0 0)
(0.925028 0 0)
(0.925028 0 0)
(0.925028 0 0)
(0.925028 0 0)
(0.925028 0 0)
(0.925028 0 0)
(0.925028 0 0)
(0.925028 0 0)
(0.925029 0 0)
(0.925029 0 0)
(0.925029 0 0)
(0.925029 0 0)
(0.925029 0 0)
(0.925029 0 0)
(0.925029 0 0)
(0.925029 0 0)
(0.925029 0 0)
(0.925029 0 0)
(0.925029 0 0)
(0.925029 0 0)
(0.925029 0 0)
(0.925029 0 0)
(0.92503 0 0)
(0.92503 0 0)
(0.92503 0 0)
(0.92503 0 0)
(0.92503 0 0)
(0.92503 0 0)
(0.92503 0 0)
(0.92503 0 0)
(0.92503 0 0)
(0.92503 0 0)
(0.92503 0 0)
(0.92503 0 0)
(0.92503 0 0)
(0.925031 0 0)
(0.925031 0 0)
(0.925031 0 0)
(0.925031 0 0)
(0.925031 0 0)
(0.925031 0 0)
(0.925031 0 0)
(0.925031 0 0)
(0.925031 0 0)
(0.925031 0 0)
(0.925031 0 0)
(0.925031 0 0)
(0.925032 0 0)
(0.925032 0 0)
(0.925032 0 0)
(0.925032 0 0)
(0.925032 0 0)
(0.925032 0 0)
(0.925032 0 0)
(0.925032 0 0)
(0.925032 0 0)
(0.925032 0 0)
(0.925033 0 0)
(0.925033 0 0)
(0.925033 0 0)
(0.925033 0 0)
(0.925033 0 0)
(0.925032 0 0)
(0.925033 0 0)
(0.925032 0 0)
(0.925033 0 0)
(0.925029 0 0)
(0.925033 0 0)
(0.925022 0 0)
(0.925028 0 0)
(0.925001 0 0)
(0.925008 0 0)
(0.924937 0 0)
(0.924931 0 0)
(0.924754 0 0)
(0.924614 0 0)
(0.924178 0 0)
(0.923334 0 0)
(0.92204 0 0)
(0.918396 0 0)
(0.913826 0 0)
(0.89999 0 0)
(0.881408 0 0)
(0.830878 0 0)
(0.744018 0 0)
(0.533285 0 0)
(0.197083 0 0)
(0.0139799 0 0)
(0.000101907 0 0)
(3.66948e-08 0 0)
(3.94594e-10 0 0)
(3.50647e-10 0 0)
(3.14703e-10 0 0)
(3.03737e-10 0 0)
(2.75652e-10 0 0)
(2.46438e-10 0 0)
(2.56571e-10 0 0)
(2.90053e-10 0 0)
(3.53818e-10 0 0)
(3.71319e-10 0 0)
(3.83736e-10 0 0)
(3.95949e-10 0 0)
(3.56609e-10 0 0)
(3.16336e-10 0 0)
(2.7879e-10 0 0)
(2.49776e-10 0 0)
(2.8958e-10 0 0)
(2.97826e-10 0 0)
(3.11821e-10 0 0)
(3.4715e-10 0 0)
(3.39294e-10 0 0)
(3.22615e-10 0 0)
(3.15295e-10 0 0)
(3.45402e-10 0 0)
(4.0877e-10 0 0)
(4.0622e-10 0 0)
(4.10709e-10 0 0)
(4.26465e-10 0 0)
(4.41928e-10 0 0)
(4.1576e-10 0 0)
(3.55377e-10 0 0)
(3.49448e-10 0 0)
(3.42395e-10 0 0)
(3.47211e-10 0 0)
(3.67807e-10 0 0)
(3.79344e-10 0 0)
(3.994e-10 0 0)
(3.98058e-10 0 0)
(4.07673e-10 0 0)
(4.09668e-10 0 0)
(4.33009e-10 0 0)
(4.5972e-10 0 0)
(4.51587e-10 0 0)
(4.24028e-10 0 0)
(3.99673e-10 0 0)
(3.97063e-10 0 0)
(3.76169e-10 0 0)
(3.86792e-10 0 0)
(4.35216e-10 0 0)
(4.92627e-10 0 0)
(5.54844e-10 0 0)
(6.06229e-10 0 0)
(6.27836e-10 0 0)
(6.53373e-10 0 0)
(6.42784e-10 0 0)
(6.75924e-10 0 0)
(6.81854e-10 0 0)
(6.46736e-10 0 0)
(6.11427e-10 0 0)
(5.77459e-10 0 0)
(5.84817e-10 0 0)
(5.75536e-10 0 0)
(5.78483e-10 0 0)
(5.78179e-10 0 0)
(5.78088e-10 0 0)
(6.0184e-10 0 0)
(5.74605e-10 0 0)
(5.7109e-10 0 0)
(5.70826e-10 0 0)
(5.37852e-10 0 0)
(5.66507e-10 0 0)
(5.95933e-10 0 0)
(6.11816e-10 0 0)
(6.22251e-10 0 0)
(6.1209e-10 0 0)
(6.01723e-10 0 0)
(5.73784e-10 0 0)
(5.00773e-10 0 0)
(5.3455e-10 0 0)
(5.92619e-10 0 0)
(6.08795e-10 0 0)
(5.57587e-10 0 0)
(5.87169e-10 0 0)
(5.75489e-10 0 0)
(5.71207e-10 0 0)
(5.931e-10 0 0)
(5.6266e-10 0 0)
(5.7732e-10 0 0)
(5.69085e-10 0 0)
(5.80547e-10 0 0)
(5.65666e-10 0 0)
(5.32697e-10 0 0)
(4.9848e-10 0 0)
(4.5426e-10 0 0)
(3.9473e-10 0 0)
(3.59515e-10 0 0)
(3.25889e-10 0 0)
(3.49737e-10 0 0)
(3.77991e-10 0 0)
(3.89908e-10 0 0)
(3.90172e-10 0 0)
(3.88689e-10 0 0)
(3.91411e-10 0 0)
(3.94184e-10 0 0)
(3.8831e-10 0 0)
(3.75158e-10 0 0)
(3.81541e-10 0 0)
(3.50539e-10 0 0)
(3.51738e-10 0 0)
(3.39725e-10 0 0)
(3.43867e-10 0 0)
(3.76457e-10 0 0)
(4.27613e-10 0 0)
(4.47802e-10 0 0)
(4.37983e-10 0 0)
(4.5407e-10 0 0)
(4.66364e-10 0 0)
(4.60325e-10 0 0)
(4.56632e-10 0 0)
(4.13575e-10 0 0)
(3.53704e-10 0 0)
(3.14881e-10 0 0)
(3.06897e-10 0 0)
(3.0855e-10 0 0)
(3.33954e-10 0 0)
(3.25761e-10 0 0)
(3.05118e-10 0 0)
(2.76884e-10 0 0)
(2.72109e-10 0 0)
(2.26857e-10 0 0)
(2.03258e-10 0 0)
(2.31029e-10 0 0)
(2.4368e-10 0 0)
(2.319e-10 0 0)
(2.15359e-10 0 0)
(2.01566e-10 0 0)
(1.99166e-10 0 0)
(1.84337e-10 0 0)
(1.99454e-10 0 0)
(2.1643e-10 0 0)
(2.03099e-10 0 0)
(2.29144e-10 0 0)
(2.11891e-10 0 0)
(1.98984e-10 0 0)
(2.40915e-10 0 0)
)
;

boundaryField
{
    sides
    {
        type            zeroGradient;
    }
    empty
    {
        type            empty;
    }
}


// ************************************************************************* //
