/*--------------------------------*- C++ -*----------------------------------*\
  =========                 |
  \\      /  F ield         | OpenFOAM: The Open Source CFD Toolbox
   \\    /   O peration     | Website:  https://openfoam.org
    \\  /    A nd           | Version:  12
     \\/     M anipulation  |
\*---------------------------------------------------------------------------*/
FoamFile
{
    format      ascii;
    class       volScalarField;
    location    "0.2";
    object      p;
}
// * * * * * * * * * * * * * * * * * * * * * * * * * * * * * * * * * * * * * //

dimensions      [1 -1 -2 0 0 0 0];

internalField   nonuniform List<scalar> 
1000
(
1
1
1
1
1
1
1
1
1
1
1
1
1
1
1
1
1
1
1
1
1
1
1
1
1
1
1
1
1
1
1
1
1
1
1
1
1
1
1
1
1
1
1
1
1
1
1
1
1
1
1
1
1
1
1
1
1
1
1
1
1
1
1
1
1
1
1
1
1
1
1
1
1
1
1
1
1
1
1
1
1
1
1
1
1
1
1
1
1
1
1
1
1
1
1
1
1
1
1
1
1
1
1
1
1
1
1
1
1
1
1
1
1
1
1
1
1
1
1
1
1
1
1
1
1
1
1
1
1
1
1
1
1
1
1
1
1
1
1
1
1
1
1
1
1
1
1
1
1
1
1
1
1
1
1
1
1
1
1
1
1
1
1
1
1
1
1
1
1
1
1
1
1
1
1
1
1
1
1
1
1
1
1
1
1
1
1
1
1
1
1
1
1
1
1
1
1
1
1
1
1
1
1
1
1
1
1
1
1
1
1
1
1
1
1
1
1
1
1
1
1
1
1
1
1
1
1
1
1
1
1
1
1
1
1
1
1
1
1
1
1
1
1
0.999997
0.999984
0.99995
0.999882
0.999763
0.999574
0.999294
0.9989
0.998372
0.997689
0.996834
0.995794
0.994557
0.993119
0.991477
0.989632
0.987588
0.985352
0.982933
0.980341
0.977587
0.974683
0.97164
0.96847
0.965184
0.961793
0.958307
0.954737
0.95109
0.947375
0.9436
0.939772
0.935896
0.931979
0.928025
0.92404
0.920028
0.915993
0.911938
0.907866
0.90378
0.899683
0.895577
0.891465
0.887347
0.883227
0.879105
0.874982
0.870862
0.866743
0.862628
0.858517
0.854412
0.850313
0.846221
0.842136
0.83806
0.833992
0.829934
0.825885
0.821846
0.817819
0.813802
0.809796
0.805802
0.80182
0.797849
0.793892
0.789947
0.786014
0.782095
0.778188
0.774295
0.770416
0.76655
0.762697
0.758858
0.755034
0.751223
0.747426
0.743643
0.739874
0.73612
0.73238
0.728654
0.724943
0.721246
0.717563
0.713895
0.710241
0.706602
0.702977
0.699367
0.695771
0.69219
0.688623
0.685071
0.681534
0.678011
0.674502
0.671008
0.667528
0.664063
0.660613
0.657177
0.653755
0.650347
0.646954
0.643576
0.640212
0.636862
0.633526
0.630204
0.626897
0.623604
0.620326
0.617061
0.61381
0.610574
0.607351
0.604143
0.600949
0.597768
0.594602
0.591449
0.58831
0.585185
0.582074
0.578976
0.575892
0.572822
0.569766
0.566722
0.563693
0.560677
0.557674
0.554685
0.55171
0.548747
0.545798
0.542862
0.539939
0.53703
0.534133
0.53125
0.52838
0.525523
0.522678
0.519847
0.517028
0.514223
0.51143
0.50865
0.505882
0.503127
0.500385
0.497656
0.494939
0.492234
0.489542
0.486862
0.484195
0.48154
0.478897
0.476266
0.473648
0.471042
0.468448
0.465866
0.463296
0.460738
0.458192
0.455657
0.453135
0.450624
0.448126
0.445639
0.443163
0.440699
0.438247
0.435807
0.433378
0.43096
0.428554
0.426159
0.423776
0.421404
0.419043
0.416693
0.414355
0.412027
0.409711
0.407406
0.405112
0.402829
0.400557
0.398296
0.396046
0.393806
0.391578
0.38936
0.387153
0.384956
0.38277
0.380595
0.378431
0.376276
0.374133
0.372
0.369877
0.367765
0.365663
0.363571
0.36149
0.359419
0.357358
0.355308
0.353267
0.351237
0.349217
0.347206
0.345206
0.343216
0.341236
0.339265
0.337305
0.335355
0.333414
0.331483
0.329562
0.327651
0.325749
0.323857
0.321974
0.320101
0.318237
0.316382
0.314537
0.312701
0.310879
0.309077
0.307317
0.305641
0.304132
0.302909
0.302092
0.3017
0.301602
0.301641
0.301899
0.302098
0.302175
0.302205
0.30223
0.30227
0.302322
0.302372
0.302415
0.302452
0.302484
0.302512
0.302534
0.302553
0.30257
0.302584
0.302597
0.302607
0.302614
0.302621
0.302626
0.302631
0.302635
0.302639
0.302644
0.302648
0.302652
0.302655
0.302659
0.302662
0.302666
0.302669
0.302672
0.302674
0.302677
0.30268
0.302682
0.302684
0.302686
0.302688
0.30269
0.302692
0.302693
0.302695
0.302696
0.302698
0.302699
0.3027
0.302701
0.302702
0.302703
0.302704
0.302704
0.302705
0.302705
0.302706
0.302706
0.302707
0.302707
0.302707
0.302708
0.302708
0.302708
0.302708
0.302709
0.302709
0.302709
0.302709
0.302709
0.302709
0.302709
0.302709
0.302709
0.302709
0.302709
0.302709
0.302709
0.302709
0.302709
0.302709
0.302709
0.302709
0.302709
0.302709
0.302709
0.30271
0.30271
0.30271
0.30271
0.30271
0.30271
0.30271
0.30271
0.30271
0.30271
0.30271
0.30271
0.30271
0.30271
0.30271
0.30271
0.30271
0.30271
0.30271
0.30271
0.30271
0.30271
0.30271
0.30271
0.30271
0.30271
0.30271
0.30271
0.30271
0.30271
0.30271
0.30271
0.30271
0.30271
0.30271
0.30271
0.30271
0.30271
0.30271
0.30271
0.30271
0.30271
0.30271
0.30271
0.30271
0.30271
0.30271
0.30271
0.30271
0.30271
0.30271
0.30271
0.30271
0.30271
0.30271
0.30271
0.30271
0.30271
0.30271
0.30271
0.30271
0.30271
0.30271
0.30271
0.30271
0.30271
0.30271
0.30271
0.30271
0.30271
0.30271
0.30271
0.302709
0.302709
0.302709
0.302709
0.302709
0.302709
0.302709
0.302709
0.302709
0.302709
0.302709
0.302709
0.302709
0.302709
0.30271
0.30271
0.30271
0.30271
0.30271
0.30271
0.30271
0.30271
0.30271
0.302711
0.302712
0.302713
0.302715
0.302717
0.30272
0.302725
0.302731
0.302738
0.302746
0.302755
0.302763
0.302771
0.302777
0.302781
0.302781
0.302778
0.302771
0.302762
0.302751
0.302741
0.302731
0.302723
0.302718
0.302715
0.302713
0.302712
0.302712
0.302711
0.302711
0.302711
0.302711
0.302711
0.302712
0.302712
0.302712
0.302712
0.302712
0.302712
0.302712
0.302712
0.302712
0.302712
0.302712
0.302712
0.302712
0.302712
0.302712
0.302712
0.302712
0.302712
0.302712
0.302712
0.302712
0.302712
0.302712
0.302712
0.302712
0.302712
0.302712
0.302712
0.302712
0.302712
0.302712
0.302712
0.302712
0.302712
0.302712
0.302712
0.302712
0.302712
0.302712
0.302712
0.302712
0.302712
0.302712
0.302712
0.302712
0.302712
0.302712
0.302712
0.302712
0.302712
0.302712
0.302713
0.302713
0.302713
0.302713
0.302713
0.302713
0.302713
0.302713
0.302713
0.302713
0.302713
0.302713
0.302713
0.302713
0.302713
0.302713
0.302713
0.302713
0.302713
0.302713
0.302713
0.302713
0.302713
0.302713
0.302713
0.302713
0.302713
0.302713
0.302713
0.302713
0.302713
0.302713
0.302713
0.302713
0.302713
0.302713
0.302713
0.302713
0.302713
0.302714
0.302714
0.302714
0.302714
0.302714
0.302714
0.302714
0.302714
0.302714
0.302714
0.302714
0.302714
0.302714
0.302714
0.302714
0.302714
0.302714
0.302714
0.302714
0.302714
0.302714
0.302714
0.302714
0.302714
0.302714
0.302714
0.302714
0.302714
0.302714
0.302714
0.302714
0.302714
0.302715
0.302714
0.302715
0.302714
0.302715
0.302712
0.302714
0.302708
0.302712
0.302696
0.302702
0.302658
0.302659
0.302535
0.302482
0.302085
0.301789
0.300405
0.299083
0.294282
0.28851
0.272331
0.246848
0.192634
0.128449
0.10186
0.100013
0.1
0.1
0.1
0.1
0.1
0.1
0.1
0.1
0.1
0.1
0.1
0.1
0.1
0.1
0.1
0.1
0.1
0.1
0.1
0.1
0.1
0.1
0.1
0.1
0.1
0.1
0.1
0.1
0.1
0.1
0.1
0.1
0.1
0.1
0.1
0.1
0.1
0.1
0.1
0.1
0.1
0.1
0.1
0.1
0.1
0.1
0.1
0.1
0.1
0.1
0.1
0.1
0.1
0.1
0.1
0.1
0.1
0.1
0.1
0.1
0.1
0.1
0.1
0.1
0.1
0.1
0.1
0.1
0.1
0.1
0.1
0.1
0.1
0.1
0.1
0.1
0.1
0.1
0.1
0.1
0.1
0.1
0.1
0.1
0.1
0.1
0.1
0.1
0.1
0.1
0.1
0.1
0.1
0.1
0.1
0.1
0.1
0.1
0.1
0.1
0.1
0.1
0.1
0.1
0.1
0.1
0.1
0.1
0.1
0.1
0.1
0.1
0.1
0.1
0.1
0.1
0.1
0.1
0.1
0.1
0.1
0.1
0.1
0.1
0.1
0.1
0.1
0.1
0.1
0.1
0.1
0.1
0.1
0.1
0.1
0.1
0.1
0.1
0.1
0.1
0.1
0.1
0.1
0.1
0.1
0.1
)
;

boundaryField
{
    sides
    {
        type            zeroGradient;
    }
    empty
    {
        type            empty;
    }
}


// ************************************************************************* //
