/*--------------------------------*- C++ -*----------------------------------*\
  =========                 |
  \\      /  F ield         | OpenFOAM: The Open Source CFD Toolbox
   \\    /   O peration     | Website:  https://openfoam.org
    \\  /    A nd           | Version:  12
     \\/     M anipulation  |
\*---------------------------------------------------------------------------*/
FoamFile
{
    format      ascii;
    class       volScalarField;
    location    "0.2";
    object      rho;
}
// * * * * * * * * * * * * * * * * * * * * * * * * * * * * * * * * * * * * * //

dimensions      [1 -3 0 0 0 0 0];

internalField   nonuniform List<scalar> 
1000
(
1.00725
1.00725
1.00725
1.00725
1.00725
1.00725
1.00725
1.00725
1.00725
1.00725
1.00725
1.00725
1.00725
1.00725
1.00725
1.00725
1.00725
1.00725
1.00725
1.00725
1.00725
1.00725
1.00725
1.00725
1.00725
1.00725
1.00725
1.00725
1.00725
1.00725
1.00725
1.00725
1.00725
1.00725
1.00725
1.00725
1.00725
1.00725
1.00725
1.00725
1.00725
1.00725
1.00725
1.00725
1.00725
1.00725
1.00725
1.00725
1.00725
1.00725
1.00725
1.00725
1.00725
1.00725
1.00725
1.00725
1.00725
1.00725
1.00725
1.00725
1.00725
1.00725
1.00725
1.00725
1.00725
1.00725
1.00725
1.00725
1.00725
1.00725
1.00725
1.00725
1.00725
1.00725
1.00725
1.00725
1.00725
1.00725
1.00725
1.00725
1.00725
1.00725
1.00725
1.00725
1.00725
1.00725
1.00725
1.00725
1.00725
1.00725
1.00725
1.00725
1.00725
1.00725
1.00725
1.00725
1.00725
1.00725
1.00725
1.00725
1.00725
1.00725
1.00725
1.00725
1.00725
1.00725
1.00725
1.00725
1.00725
1.00725
1.00725
1.00725
1.00725
1.00725
1.00725
1.00725
1.00725
1.00725
1.00725
1.00725
1.00725
1.00725
1.00725
1.00725
1.00725
1.00725
1.00725
1.00725
1.00725
1.00725
1.00725
1.00725
1.00725
1.00725
1.00725
1.00725
1.00725
1.00725
1.00725
1.00725
1.00725
1.00725
1.00725
1.00725
1.00725
1.00725
1.00725
1.00725
1.00725
1.00725
1.00725
1.00725
1.00725
1.00725
1.00725
1.00725
1.00725
1.00725
1.00725
1.00725
1.00725
1.00725
1.00725
1.00725
1.00725
1.00725
1.00725
1.00725
1.00725
1.00725
1.00725
1.00725
1.00725
1.00725
1.00725
1.00725
1.00725
1.00725
1.00725
1.00725
1.00725
1.00725
1.00725
1.00725
1.00725
1.00725
1.00725
1.00725
1.00725
1.00725
1.00725
1.00725
1.00725
1.00725
1.00725
1.00725
1.00725
1.00725
1.00725
1.00725
1.00725
1.00725
1.00725
1.00725
1.00725
1.00725
1.00725
1.00725
1.00725
1.00725
1.00725
1.00725
1.00725
1.00725
1.00725
1.00725
1.00725
1.00725
1.00725
1.00725
1.00725
1.00725
1.00725
1.00725
1.00725
1.00725
1.00725
1.00725
1.00725
1.00725
1.00725
1.00725
1.00725
1.00725
1.00725
1.00725
1.00725
1.00725
1.00725
1.00725
1.00725
1.00725
1.00725
1.00725
1.00724
1.00722
1.00717
1.00708
1.00695
1.00675
1.00646
1.00608
1.00559
1.00498
1.00423
1.00334
1.0023
1.00112
0.999784
0.998309
0.996694
0.994946
0.993071
0.991077
0.988973
0.986767
0.984466
0.982079
0.979613
0.977076
0.974474
0.971813
0.9691
0.96634
0.963538
0.960697
0.957823
0.954919
0.951988
0.949033
0.946058
0.943064
0.940054
0.93703
0.933993
0.930946
0.927891
0.924827
0.921757
0.918682
0.915603
0.91252
0.909435
0.906348
0.903261
0.900173
0.897086
0.894
0.890915
0.887832
0.884752
0.881674
0.878599
0.875528
0.872461
0.869397
0.866338
0.863283
0.860233
0.857189
0.854149
0.851115
0.848086
0.845063
0.842045
0.839034
0.836028
0.833029
0.830036
0.82705
0.82407
0.821097
0.81813
0.81517
0.812217
0.80927
0.806331
0.803399
0.800473
0.797555
0.794644
0.79174
0.788843
0.785953
0.783071
0.780196
0.777329
0.774469
0.771616
0.76877
0.765933
0.763102
0.760279
0.757464
0.754656
0.751855
0.749062
0.746277
0.743499
0.740729
0.737966
0.735211
0.732464
0.729724
0.726992
0.724267
0.72155
0.71884
0.716138
0.713444
0.710757
0.708078
0.705407
0.702743
0.700087
0.697438
0.694797
0.692163
0.689537
0.686919
0.684308
0.681705
0.679109
0.676521
0.67394
0.671367
0.668801
0.666243
0.663693
0.661149
0.658614
0.656086
0.653565
0.651052
0.648546
0.646048
0.643557
0.641073
0.638597
0.636129
0.633667
0.631213
0.628767
0.626328
0.623896
0.621471
0.619054
0.616644
0.614242
0.611846
0.609458
0.607077
0.604704
0.602337
0.599978
0.597626
0.595282
0.592944
0.590614
0.58829
0.585974
0.583665
0.581364
0.579069
0.576781
0.574501
0.572227
0.569961
0.567701
0.565449
0.563203
0.560965
0.558734
0.556509
0.554292
0.552081
0.549878
0.547681
0.545491
0.543308
0.541132
0.538963
0.536801
0.534646
0.532497
0.530355
0.528221
0.526092
0.523971
0.521857
0.519749
0.517648
0.515554
0.513466
0.511385
0.509311
0.507244
0.505183
0.503129
0.501082
0.499041
0.497007
0.494979
0.492959
0.490944
0.488937
0.486936
0.484942
0.482954
0.480972
0.478998
0.47703
0.475068
0.473113
0.471165
0.469223
0.467287
0.465358
0.463436
0.46152
0.459611
0.457708
0.455812
0.453922
0.452038
0.450161
0.44829
0.446426
0.444567
0.442715
0.440868
0.439029
0.4372
0.435389
0.433616
0.431926
0.430401
0.429164
0.428336
0.427939
0.427838
0.427878
0.428139
0.428341
0.428418
0.428448
0.428473
0.428513
0.428565
0.428615
0.428659
0.428696
0.428728
0.428755
0.428778
0.428797
0.428813
0.428827
0.428839
0.428849
0.428856
0.428862
0.428867
0.428871
0.428875
0.428879
0.428883
0.428886
0.42889
0.428893
0.428896
0.428899
0.428902
0.428905
0.428907
0.428909
0.428912
0.428914
0.428916
0.428917
0.428919
0.42892
0.428921
0.428922
0.428923
0.428924
0.428925
0.428926
0.428927
0.428927
0.428928
0.428928
0.428928
0.428928
0.428928
0.428928
0.428928
0.428928
0.428927
0.428927
0.428927
0.428926
0.428926
0.428925
0.428925
0.428924
0.428923
0.428923
0.428922
0.428921
0.428921
0.42892
0.428919
0.428918
0.428917
0.428916
0.428915
0.428914
0.428913
0.428912
0.428911
0.42891
0.428909
0.428908
0.428907
0.428906
0.428905
0.428904
0.428903
0.428902
0.428901
0.4289
0.428899
0.428897
0.428896
0.428895
0.428894
0.428892
0.428891
0.42889
0.428888
0.428887
0.428885
0.428884
0.428882
0.42888
0.428878
0.428877
0.428875
0.428873
0.428871
0.428869
0.428868
0.428866
0.428864
0.428862
0.42886
0.428858
0.428856
0.428854
0.428852
0.42885
0.428848
0.428845
0.428842
0.42884
0.428837
0.428834
0.428831
0.428828
0.428825
0.428822
0.428819
0.428816
0.428812
0.428809
0.428806
0.428802
0.428799
0.428795
0.428791
0.428787
0.428783
0.428779
0.428774
0.428769
0.428764
0.428759
0.428753
0.428747
0.428741
0.428735
0.428728
0.428721
0.428714
0.428707
0.428699
0.42869
0.428681
0.428672
0.428661
0.42865
0.428639
0.428626
0.428613
0.428598
0.428581
0.428561
0.428537
0.428507
0.428469
0.428418
0.428349
0.428254
0.428123
0.427939
0.427684
0.427329
0.426842
0.426179
0.425285
0.424098
0.422543
0.420536
0.417986
0.414802
0.410892
0.406178
0.4006
0.394124
0.386753
0.378534
0.369558
0.359964
0.349934
0.339683
0.329448
0.319476
0.310002
0.301241
0.293366
0.286505
0.280729
0.276051
0.272429
0.26977
0.267944
0.266795
0.266157
0.265866
0.265771
0.265757
0.265757
0.265761
0.265769
0.265784
0.265802
0.265823
0.265844
0.265862
0.265878
0.265891
0.265901
0.265908
0.265914
0.265919
0.265923
0.265926
0.265928
0.265931
0.265932
0.265934
0.265935
0.265936
0.265936
0.265937
0.265937
0.265937
0.265937
0.265938
0.265938
0.265938
0.265938
0.265938
0.265938
0.265938
0.265938
0.265938
0.265938
0.265938
0.265938
0.265937
0.265937
0.265937
0.265937
0.265937
0.265937
0.265937
0.265937
0.265937
0.265937
0.265937
0.265937
0.265936
0.265936
0.265936
0.265936
0.265936
0.265936
0.265936
0.265936
0.265936
0.265936
0.265936
0.265936
0.265935
0.265935
0.265935
0.265935
0.265935
0.265935
0.265935
0.265935
0.265935
0.265935
0.265935
0.265936
0.265936
0.265936
0.265936
0.265936
0.265936
0.265936
0.265936
0.265936
0.265936
0.265936
0.265936
0.265936
0.265936
0.265936
0.265936
0.265936
0.265936
0.265936
0.265936
0.265936
0.265936
0.265936
0.265936
0.265936
0.265936
0.265936
0.265936
0.265936
0.265936
0.265936
0.265936
0.265936
0.265936
0.265937
0.265937
0.265937
0.265937
0.265937
0.265937
0.265937
0.265937
0.265937
0.265937
0.265937
0.265937
0.265937
0.265937
0.265937
0.265937
0.265937
0.265937
0.265937
0.265937
0.265936
0.265937
0.265936
0.265937
0.265933
0.265935
0.265925
0.265929
0.265901
0.265902
0.265824
0.265791
0.265541
0.265359
0.264484
0.263669
0.26062
0.257057
0.246725
0.230601
0.194473
0.14809
0.126882
0.125303
0.125291
0.125291
0.125291
0.125291
0.125291
0.125291
0.125291
0.125291
0.125291
0.125291
0.125291
0.125291
0.125291
0.125291
0.125291
0.125291
0.125291
0.125291
0.125291
0.125291
0.125291
0.125291
0.125291
0.125291
0.125291
0.125291
0.125291
0.125291
0.125291
0.125291
0.125291
0.125291
0.125291
0.125291
0.125291
0.125291
0.125291
0.125291
0.125291
0.125291
0.125291
0.125291
0.125291
0.125291
0.125291
0.125291
0.125291
0.125291
0.125291
0.125291
0.125291
0.125291
0.125291
0.125291
0.125291
0.125291
0.125291
0.125291
0.125291
0.125291
0.125291
0.125291
0.125291
0.125291
0.125291
0.125291
0.125291
0.125291
0.125291
0.125291
0.125291
0.125291
0.125291
0.125291
0.125291
0.125291
0.125291
0.125291
0.125291
0.125291
0.125291
0.125291
0.125291
0.125291
0.125291
0.125291
0.125291
0.125291
0.125291
0.125291
0.125291
0.125291
0.125291
0.125291
0.125291
0.125291
0.125291
0.125291
0.125291
0.125291
0.125291
0.125291
0.125291
0.125291
0.125291
0.125291
0.125291
0.125291
0.125291
0.125291
0.125291
0.125291
0.125291
0.125291
0.125291
0.125291
0.125291
0.125291
0.125291
0.125291
0.125291
0.125291
0.125291
0.125291
0.125291
0.125291
0.125291
0.125291
0.125291
0.125291
0.125291
0.125291
0.125291
0.125291
0.125291
0.125291
0.125291
0.125291
0.125291
0.125291
0.125291
0.125291
0.125291
0.125291
0.125291
0.125291
)
;

boundaryField
{
    sides
    {
        type            calculated;
        value           nonuniform List<scalar> 2(0.125291 1.00725);
    }
    empty
    {
        type            empty;
    }
}


// ************************************************************************* //
