/*--------------------------------*- C++ -*----------------------------------*\
  =========                 |
  \\      /  F ield         | OpenFOAM: The Open Source CFD Toolbox
   \\    /   O peration     | Website:  https://openfoam.org
    \\  /    A nd           | Version:  12
     \\/     M anipulation  |
\*---------------------------------------------------------------------------*/
FoamFile
{
    format      ascii;
    class       volScalarField;
    location    "0.2";
    object      T;
}
// * * * * * * * * * * * * * * * * * * * * * * * * * * * * * * * * * * * * * //

dimensions      [0 0 0 1 0 0 0];

internalField   nonuniform List<scalar> 
1000
(
0.003458
0.003458
0.003458
0.003458
0.003458
0.003458
0.003458
0.003458
0.003458
0.003458
0.003458
0.003458
0.003458
0.003458
0.003458
0.003458
0.003458
0.003458
0.003458
0.003458
0.003458
0.003458
0.003458
0.003458
0.003458
0.003458
0.003458
0.003458
0.003458
0.003458
0.003458
0.003458
0.003458
0.003458
0.003458
0.003458
0.003458
0.003458
0.003458
0.003458
0.003458
0.003458
0.003458
0.003458
0.003458
0.003458
0.003458
0.003458
0.003458
0.003458
0.003458
0.003458
0.003458
0.003458
0.003458
0.003458
0.003458
0.003458
0.003458
0.003458
0.003458
0.003458
0.003458
0.003458
0.003458
0.003458
0.003458
0.003458
0.003458
0.003458
0.003458
0.003458
0.003458
0.003458
0.003458
0.003458
0.003458
0.003458
0.003458
0.003458
0.003458
0.003458
0.003458
0.003458
0.003458
0.003458
0.003458
0.003458
0.003458
0.003458
0.003458
0.003458
0.003458
0.003458
0.003458
0.003458
0.003458
0.003458
0.003458
0.003458
0.003458
0.003458
0.003458
0.003458
0.003458
0.003458
0.003458
0.003458
0.003458
0.003458
0.003458
0.003458
0.003458
0.003458
0.003458
0.003458
0.003458
0.003458
0.003458
0.003458
0.003458
0.003458
0.003458
0.003458
0.003458
0.003458
0.003458
0.003458
0.003458
0.003458
0.003458
0.003458
0.003458
0.003458
0.003458
0.003458
0.003458
0.003458
0.003458
0.003458
0.003458
0.003458
0.003458
0.003458
0.003458
0.003458
0.003458
0.003458
0.003458
0.003458
0.003458
0.003458
0.003458
0.003458
0.003458
0.003458
0.003458
0.003458
0.003458
0.003458
0.003458
0.003458
0.003458
0.003458
0.003458
0.003458
0.003458
0.003458
0.003458
0.003458
0.003458
0.003458
0.003458
0.003458
0.003458
0.003458
0.003458
0.003458
0.003458
0.003458
0.003458
0.003458
0.003458
0.003458
0.003458
0.003458
0.003458
0.003458
0.003458
0.003458
0.003458
0.003458
0.003458
0.003458
0.003458
0.003458
0.003458
0.003458
0.003458
0.003458
0.003458
0.003458
0.003458
0.003458
0.003458
0.003458
0.003458
0.003458
0.003458
0.003458
0.003458
0.003458
0.003458
0.003458
0.003458
0.003458
0.003458
0.003458
0.003458
0.003458
0.003458
0.003458
0.003458
0.003458
0.003458
0.003458
0.003458
0.003458
0.003458
0.003458
0.003458
0.003458
0.003458
0.003458
0.003458
0.003458
0.003458
0.003458
0.003458
0.003458
0.003458
0.003458
0.003458
0.003458
0.00345798
0.00345795
0.00345788
0.00345777
0.00345758
0.0034573
0.00345691
0.00345639
0.00345571
0.00345487
0.00345384
0.00345261
0.00345118
0.00344955
0.00344772
0.00344568
0.00344345
0.00344103
0.00343844
0.00343568
0.00343276
0.00342969
0.00342649
0.00342317
0.00341973
0.00341618
0.00341254
0.00340881
0.003405
0.00340112
0.00339717
0.00339317
0.0033891
0.00338499
0.00338083
0.00337663
0.0033724
0.00336812
0.00336382
0.00335949
0.00335513
0.00335075
0.00334635
0.00334193
0.00333749
0.00333303
0.00332856
0.00332408
0.00331958
0.00331507
0.00331055
0.00330602
0.00330148
0.00329693
0.00329238
0.00328782
0.00328325
0.00327868
0.00327411
0.00326953
0.00326494
0.00326035
0.00325576
0.00325116
0.00324657
0.00324197
0.00323737
0.00323276
0.00322816
0.00322355
0.00321894
0.00321434
0.00320973
0.00320512
0.00320051
0.0031959
0.00319129
0.00318668
0.00318207
0.00317746
0.00317285
0.00316825
0.00316364
0.00315904
0.00315443
0.00314983
0.00314522
0.00314062
0.00313602
0.00313143
0.00312683
0.00312223
0.00311764
0.00311305
0.00310846
0.00310387
0.00309928
0.0030947
0.00309011
0.00308553
0.00308095
0.00307638
0.0030718
0.00306723
0.00306266
0.00305809
0.00305352
0.00304896
0.0030444
0.00303984
0.00303528
0.00303073
0.00302618
0.00302163
0.00301708
0.00301254
0.00300799
0.00300345
0.00299892
0.00299438
0.00298985
0.00298532
0.0029808
0.00297627
0.00297175
0.00296723
0.00296272
0.00295821
0.0029537
0.00294919
0.00294469
0.00294018
0.00293569
0.00293119
0.0029267
0.00292221
0.00291772
0.00291324
0.00290876
0.00290428
0.0028998
0.00289533
0.00289086
0.00288639
0.00288193
0.00287747
0.00287301
0.00286856
0.0028641
0.00285966
0.00285521
0.00285077
0.00284633
0.00284189
0.00283746
0.00283303
0.0028286
0.00282418
0.00281975
0.00281534
0.00281092
0.00280651
0.0028021
0.00279769
0.00279329
0.00278889
0.0027845
0.0027801
0.00277571
0.00277133
0.00276694
0.00276256
0.00275818
0.00275381
0.00274944
0.00274507
0.00274071
0.00273634
0.00273199
0.00272763
0.00272328
0.00271893
0.00271458
0.00271024
0.0027059
0.00270157
0.00269723
0.00269291
0.00268858
0.00268426
0.00267994
0.00267562
0.00267131
0.002667
0.00266269
0.00265839
0.00265409
0.00264979
0.0026455
0.00264121
0.00263693
0.00263264
0.00262836
0.00262409
0.00261982
0.00261555
0.00261128
0.00260702
0.00260276
0.00259851
0.00259426
0.00259001
0.00258576
0.00258152
0.00257729
0.00257305
0.00256882
0.00256459
0.00256037
0.00255615
0.00255194
0.00254773
0.00254352
0.00253931
0.00253511
0.00253092
0.00252672
0.00252253
0.00251835
0.00251417
0.00250999
0.00250582
0.00250165
0.00249748
0.00249332
0.00248916
0.002485
0.00248085
0.00247671
0.0024726
0.00246857
0.00246472
0.00246123
0.00245841
0.00245651
0.0024556
0.00245538
0.00245547
0.00245607
0.00245653
0.00245671
0.00245679
0.00245685
0.00245694
0.00245707
0.00245719
0.00245729
0.00245738
0.00245745
0.00245752
0.00245757
0.00245762
0.00245766
0.0024577
0.00245773
0.00245775
0.00245777
0.00245779
0.00245781
0.00245782
0.00245783
0.00245785
0.00245786
0.00245787
0.00245788
0.00245789
0.00245791
0.00245792
0.00245793
0.00245794
0.00245795
0.00245796
0.00245796
0.00245797
0.00245798
0.00245799
0.002458
0.00245801
0.00245802
0.00245802
0.00245803
0.00245804
0.00245804
0.00245805
0.00245806
0.00245806
0.00245807
0.00245808
0.00245808
0.00245809
0.00245809
0.0024581
0.0024581
0.00245811
0.00245811
0.00245812
0.00245812
0.00245813
0.00245813
0.00245814
0.00245814
0.00245815
0.00245815
0.00245816
0.00245816
0.00245817
0.00245817
0.00245818
0.00245818
0.00245819
0.00245819
0.0024582
0.0024582
0.00245821
0.00245822
0.00245822
0.00245823
0.00245823
0.00245824
0.00245825
0.00245825
0.00245826
0.00245826
0.00245827
0.00245828
0.00245829
0.00245829
0.0024583
0.00245831
0.00245831
0.00245832
0.00245833
0.00245834
0.00245834
0.00245835
0.00245836
0.00245837
0.00245838
0.00245838
0.00245839
0.0024584
0.00245841
0.00245842
0.00245843
0.00245844
0.00245845
0.00245846
0.00245847
0.00245848
0.00245849
0.0024585
0.00245851
0.00245852
0.00245853
0.00245855
0.00245856
0.00245857
0.00245858
0.0024586
0.00245861
0.00245863
0.00245864
0.00245866
0.00245867
0.00245869
0.00245871
0.00245873
0.00245874
0.00245876
0.00245878
0.0024588
0.00245882
0.00245884
0.00245886
0.00245888
0.0024589
0.00245892
0.00245894
0.00245897
0.00245899
0.00245902
0.00245905
0.00245908
0.00245911
0.00245914
0.00245917
0.00245921
0.00245924
0.00245928
0.00245932
0.00245936
0.00245941
0.00245945
0.0024595
0.00245955
0.00245961
0.00245966
0.00245972
0.00245979
0.00245986
0.00245994
0.00246003
0.00246012
0.00246024
0.00246038
0.00246055
0.00246077
0.00246106
0.00246146
0.002462
0.00246276
0.00246382
0.00246529
0.00246733
0.00247015
0.002474
0.00247919
0.00248614
0.00249529
0.00250721
0.00252251
0.00254189
0.0025661
0.00259591
0.00263209
0.0026754
0.00272644
0.00278572
0.00285346
0.0029296
0.00301365
0.00310466
0.00320114
0.00330107
0.00340191
0.00350078
0.00359464
0.0036806
0.00375619
0.00381972
0.00387041
0.00390848
0.00393507
0.00395199
0.00396146
0.0039658
0.00396721
0.00396742
0.00396742
0.00396737
0.00396724
0.00396702
0.00396675
0.00396644
0.00396613
0.00396585
0.00396561
0.00396543
0.00396528
0.00396517
0.00396508
0.00396501
0.00396495
0.00396491
0.00396487
0.00396483
0.00396481
0.00396479
0.00396477
0.00396476
0.00396475
0.00396475
0.00396474
0.00396474
0.00396474
0.00396473
0.00396473
0.00396473
0.00396473
0.00396473
0.00396473
0.00396473
0.00396473
0.00396473
0.00396473
0.00396473
0.00396473
0.00396474
0.00396474
0.00396474
0.00396474
0.00396474
0.00396475
0.00396475
0.00396475
0.00396475
0.00396475
0.00396475
0.00396476
0.00396476
0.00396476
0.00396476
0.00396476
0.00396476
0.00396476
0.00396476
0.00396477
0.00396477
0.00396477
0.00396477
0.00396477
0.00396478
0.00396478
0.00396478
0.00396478
0.00396478
0.00396478
0.00396478
0.00396478
0.00396478
0.00396478
0.00396478
0.00396478
0.00396478
0.00396478
0.00396477
0.00396477
0.00396477
0.00396477
0.00396477
0.00396477
0.00396477
0.00396477
0.00396477
0.00396477
0.00396477
0.00396477
0.00396477
0.00396477
0.00396477
0.00396477
0.00396477
0.00396477
0.00396477
0.00396477
0.00396477
0.00396477
0.00396477
0.00396477
0.00396477
0.00396477
0.00396477
0.00396477
0.00396477
0.00396477
0.00396477
0.00396478
0.00396478
0.00396478
0.00396478
0.00396478
0.00396478
0.00396478
0.00396478
0.00396478
0.00396478
0.00396478
0.00396478
0.00396478
0.00396478
0.00396478
0.00396478
0.00396478
0.00396478
0.00396478
0.00396478
0.00396477
0.00396478
0.00396477
0.00396478
0.00396475
0.00396477
0.00396471
0.00396473
0.00396457
0.00396457
0.00396411
0.0039639
0.00396243
0.00396127
0.00395615
0.0039509
0.00393297
0.00390928
0.00384457
0.00372847
0.00345015
0.00302113
0.00279621
0.00278011
0.00278
0.00278
0.00278
0.00278
0.00278
0.00278
0.00278
0.00278
0.00278
0.00278
0.00278
0.00278
0.00278
0.00278
0.00278
0.00278
0.00278
0.00278
0.00278
0.00278
0.00278
0.00278
0.00278
0.00278
0.00278
0.00278
0.00278
0.00278
0.00278
0.00278
0.00278
0.00278
0.00278
0.00278
0.00278
0.00278
0.00278
0.00278
0.00278
0.00278
0.00278
0.00278
0.00278
0.00278
0.00278
0.00278
0.00278
0.00278
0.00278
0.00278
0.00278
0.00278
0.00278
0.00278
0.00278
0.00278
0.00278
0.00278
0.00278
0.00278
0.00278
0.00278
0.00278
0.00278
0.00278
0.00278
0.00278
0.00278
0.00278
0.00278
0.00278
0.00278
0.00278
0.00278
0.00278
0.00278
0.00278
0.00278
0.00278
0.00278
0.00278
0.00278
0.00278
0.00278
0.00278
0.00278
0.00278
0.00278
0.00278
0.00278
0.00278
0.00278
0.00278
0.00278
0.00278
0.00278
0.00278
0.00278
0.00278
0.00278
0.00278
0.00278
0.00278
0.00278
0.00278
0.00278
0.00278
0.00278
0.00278
0.00278
0.00278
0.00278
0.00278
0.00278
0.00278
0.00278
0.00278
0.00278
0.00278
0.00278
0.00278
0.00278
0.00278
0.00278
0.00278
0.00278
0.00278
0.00278
0.00278
0.00278
0.00278
0.00278
0.00278
0.00278
0.00278
0.00278
0.00278
0.00278
0.00278
0.00278
0.00278
0.00278
0.00278
0.00278
0.00278
0.00278
)
;

boundaryField
{
    sides
    {
        type            zeroGradient;
    }
    empty
    {
        type            empty;
    }
}


// ************************************************************************* //
