/*--------------------------------*- C++ -*----------------------------------*\
  =========                 |
  \\      /  F ield         | OpenFOAM: The Open Source CFD Toolbox
   \\    /   O peration     | Website:  https://openfoam.org
    \\  /    A nd           | Version:  12
     \\/     M anipulation  |
\*---------------------------------------------------------------------------*/
FoamFile
{
    format      ascii;
    class       volScalarField;
    location    "0.1";
    object      T;
}
// * * * * * * * * * * * * * * * * * * * * * * * * * * * * * * * * * * * * * //

dimensions      [0 0 0 1 0 0 0];

internalField   nonuniform List<scalar> 
1000
(
0.003458
0.003458
0.003458
0.003458
0.003458
0.003458
0.003458
0.003458
0.003458
0.003458
0.003458
0.003458
0.003458
0.003458
0.003458
0.003458
0.003458
0.003458
0.003458
0.003458
0.003458
0.003458
0.003458
0.003458
0.003458
0.003458
0.003458
0.003458
0.003458
0.003458
0.003458
0.003458
0.003458
0.003458
0.003458
0.003458
0.003458
0.003458
0.003458
0.003458
0.003458
0.003458
0.003458
0.003458
0.003458
0.003458
0.003458
0.003458
0.003458
0.003458
0.003458
0.003458
0.003458
0.003458
0.003458
0.003458
0.003458
0.003458
0.003458
0.003458
0.003458
0.003458
0.003458
0.003458
0.003458
0.003458
0.003458
0.003458
0.003458
0.003458
0.003458
0.003458
0.003458
0.003458
0.003458
0.003458
0.003458
0.003458
0.003458
0.003458
0.003458
0.003458
0.003458
0.003458
0.003458
0.003458
0.003458
0.003458
0.003458
0.003458
0.003458
0.003458
0.003458
0.003458
0.003458
0.003458
0.003458
0.003458
0.003458
0.003458
0.003458
0.003458
0.003458
0.003458
0.003458
0.003458
0.003458
0.003458
0.003458
0.003458
0.003458
0.003458
0.003458
0.003458
0.003458
0.003458
0.003458
0.003458
0.003458
0.003458
0.003458
0.003458
0.003458
0.003458
0.003458
0.003458
0.003458
0.003458
0.003458
0.003458
0.003458
0.003458
0.003458
0.003458
0.003458
0.003458
0.003458
0.003458
0.003458
0.003458
0.003458
0.003458
0.003458
0.003458
0.003458
0.003458
0.003458
0.003458
0.003458
0.003458
0.003458
0.003458
0.003458
0.003458
0.003458
0.003458
0.003458
0.003458
0.003458
0.003458
0.003458
0.003458
0.003458
0.003458
0.003458
0.003458
0.003458
0.003458
0.003458
0.003458
0.003458
0.003458
0.003458
0.003458
0.003458
0.003458
0.003458
0.003458
0.003458
0.003458
0.003458
0.003458
0.003458
0.003458
0.003458
0.003458
0.003458
0.003458
0.003458
0.003458
0.003458
0.003458
0.003458
0.003458
0.003458
0.003458
0.003458
0.003458
0.003458
0.003458
0.003458
0.003458
0.003458
0.003458
0.003458
0.003458
0.003458
0.003458
0.003458
0.003458
0.003458
0.003458
0.003458
0.003458
0.003458
0.003458
0.003458
0.003458
0.003458
0.003458
0.003458
0.003458
0.003458
0.003458
0.003458
0.003458
0.003458
0.003458
0.003458
0.003458
0.003458
0.003458
0.003458
0.003458
0.003458
0.003458
0.003458
0.003458
0.003458
0.003458
0.003458
0.003458
0.003458
0.003458
0.003458
0.003458
0.003458
0.003458
0.003458
0.003458
0.003458
0.003458
0.003458
0.003458
0.003458
0.003458
0.003458
0.003458
0.003458
0.003458
0.003458
0.003458
0.003458
0.003458
0.003458
0.003458
0.003458
0.003458
0.003458
0.003458
0.003458
0.003458
0.003458
0.003458
0.003458
0.003458
0.003458
0.003458
0.003458
0.003458
0.003458
0.003458
0.003458
0.003458
0.003458
0.003458
0.003458
0.003458
0.003458
0.003458
0.003458
0.003458
0.003458
0.003458
0.003458
0.003458
0.003458
0.003458
0.003458
0.003458
0.003458
0.003458
0.003458
0.003458
0.003458
0.003458
0.003458
0.003458
0.003458
0.003458
0.003458
0.003458
0.003458
0.003458
0.003458
0.003458
0.003458
0.003458
0.003458
0.003458
0.003458
0.003458
0.003458
0.003458
0.003458
0.003458
0.003458
0.003458
0.003458
0.003458
0.003458
0.003458
0.003458
0.003458
0.003458
0.003458
0.003458
0.003458
0.003458
0.003458
0.003458
0.003458
0.003458
0.003458
0.003458
0.003458
0.003458
0.003458
0.003458
0.003458
0.003458
0.003458
0.003458
0.003458
0.003458
0.003458
0.003458
0.003458
0.003458
0.003458
0.003458
0.003458
0.003458
0.003458
0.003458
0.003458
0.003458
0.003458
0.00345799
0.00345792
0.00345772
0.0034573
0.00345658
0.00345546
0.00345388
0.00345179
0.00344914
0.00344594
0.00344217
0.00343786
0.00343304
0.00342774
0.00342201
0.00341588
0.0034094
0.0034026
0.00339552
0.00338819
0.00338064
0.0033729
0.003365
0.00335694
0.00334875
0.00334045
0.00333204
0.00332355
0.00331498
0.00330635
0.00329765
0.0032889
0.00328011
0.00327127
0.0032624
0.00325349
0.00324456
0.00323561
0.00322663
0.00321764
0.00320863
0.00319961
0.00319057
0.00318153
0.00317248
0.00316342
0.00315436
0.0031453
0.00313623
0.00312716
0.00311809
0.00310902
0.00309995
0.00309089
0.00308182
0.00307276
0.00306371
0.00305465
0.0030456
0.00303656
0.00302752
0.00301849
0.00300947
0.00300045
0.00299144
0.00298244
0.00297344
0.00296445
0.00295547
0.0029465
0.00293754
0.00292858
0.00291964
0.0029107
0.00290177
0.00289286
0.00288395
0.00287505
0.00286616
0.00285729
0.00284842
0.00283956
0.00283071
0.00282188
0.00281305
0.00280424
0.00279543
0.00278664
0.00277786
0.00276909
0.00276033
0.00275158
0.00274284
0.00273412
0.0027254
0.0027167
0.00270801
0.00269933
0.00269067
0.00268201
0.00267337
0.00266474
0.00265613
0.00264752
0.00263893
0.00263035
0.00262179
0.00261324
0.0026047
0.00259618
0.00258767
0.00257917
0.00257069
0.00256223
0.00255378
0.00254534
0.00253692
0.00252852
0.00252014
0.00251177
0.00250342
0.00249511
0.00248685
0.00247872
0.00247094
0.00246397
0.0024586
0.00245559
0.00245477
0.00245505
0.00245651
0.00245706
0.0024572
0.0024572
0.00245721
0.00245732
0.00245745
0.00245757
0.00245769
0.00245779
0.00245789
0.00245797
0.00245804
0.00245811
0.00245816
0.0024582
0.00245824
0.00245828
0.00245831
0.00245834
0.00245837
0.00245839
0.00245842
0.00245845
0.00245848
0.0024585
0.00245853
0.00245855
0.00245858
0.0024586
0.00245863
0.00245865
0.00245868
0.0024587
0.00245873
0.00245875
0.00245877
0.0024588
0.00245882
0.00245885
0.00245888
0.0024589
0.00245893
0.00245896
0.00245899
0.00245902
0.00245906
0.00245909
0.00245913
0.00245917
0.0024592
0.00245924
0.00245928
0.00245931
0.00245936
0.0024594
0.00245945
0.0024595
0.00245955
0.00245961
0.00245966
0.00245973
0.00245979
0.00245986
0.00245993
0.00246001
0.00246009
0.00246018
0.00246027
0.00246037
0.00246048
0.00246061
0.00246074
0.0024609
0.0024611
0.00246135
0.0024617
0.00246221
0.00246297
0.00246414
0.00246595
0.00246875
0.00247304
0.00247949
0.00248899
0.00250267
0.00252193
0.00254837
0.00258379
0.00263007
0.00268901
0.00276213
0.00285041
0.00295391
0.00307145
0.00320026
0.00333577
0.00347176
0.00360095
0.00371597
0.00381075
0.00388182
0.003929
0.00395549
0.00396696
0.00397011
0.00397041
0.00397034
0.00397009
0.00396958
0.00396888
0.0039681
0.00396738
0.00396682
0.00396642
0.00396614
0.00396595
0.00396579
0.00396566
0.00396553
0.0039654
0.00396528
0.00396516
0.00396506
0.00396498
0.00396491
0.00396487
0.00396483
0.00396481
0.00396479
0.00396478
0.00396477
0.00396477
0.00396476
0.00396476
0.00396476
0.00396475
0.00396475
0.00396475
0.00396474
0.00396474
0.00396474
0.00396474
0.00396474
0.00396474
0.00396474
0.00396474
0.00396474
0.00396474
0.00396475
0.00396475
0.00396475
0.00396475
0.00396475
0.00396475
0.00396476
0.00396475
0.00396476
0.00396475
0.00396476
0.00396475
0.00396476
0.00396472
0.00396474
0.00396465
0.00396467
0.00396441
0.00396435
0.0039636
0.0039631
0.00396055
0.0039582
0.00394924
0.00393878
0.00390719
0.00385908
0.00373704
0.00349042
0.00305591
0.00280312
0.00278019
0.00278
0.00278
0.00278
0.00278
0.00278
0.00278
0.00278
0.00278
0.00278
0.00278
0.00278
0.00278
0.00278
0.00278
0.00278
0.00278
0.00278
0.00278
0.00278
0.00278
0.00278
0.00278
0.00278
0.00278
0.00278
0.00278
0.00278
0.00278
0.00278
0.00278
0.00278
0.00278
0.00278
0.00278
0.00278
0.00278
0.00278
0.00278
0.00278
0.00278
0.00278
0.00278
0.00278
0.00278
0.00278
0.00278
0.00278
0.00278
0.00278
0.00278
0.00278
0.00278
0.00278
0.00278
0.00278
0.00278
0.00278
0.00278
0.00278
0.00278
0.00278
0.00278
0.00278
0.00278
0.00278
0.00278
0.00278
0.00278
0.00278
0.00278
0.00278
0.00278
0.00278
0.00278
0.00278
0.00278
0.00278
0.00278
0.00278
0.00278
0.00278
0.00278
0.00278
0.00278
0.00278
0.00278
0.00278
0.00278
0.00278
0.00278
0.00278
0.00278
0.00278
0.00278
0.00278
0.00278
0.00278
0.00278
0.00278
0.00278
0.00278
0.00278
0.00278
0.00278
0.00278
0.00278
0.00278
0.00278
0.00278
0.00278
0.00278
0.00278
0.00278
0.00278
0.00278
0.00278
0.00278
0.00278
0.00278
0.00278
0.00278
0.00278
0.00278
0.00278
0.00278
0.00278
0.00278
0.00278
0.00278
0.00278
0.00278
0.00278
0.00278
0.00278
0.00278
0.00278
0.00278
0.00278
0.00278
0.00278
0.00278
0.00278
0.00278
0.00278
0.00278
0.00278
0.00278
0.00278
0.00278
0.00278
0.00278
0.00278
0.00278
0.00278
0.00278
0.00278
0.00278
0.00278
0.00278
0.00278
0.00278
0.00278
0.00278
0.00278
0.00278
0.00278
0.00278
0.00278
0.00278
0.00278
0.00278
0.00278
0.00278
0.00278
0.00278
0.00278
0.00278
0.00278
0.00278
0.00278
0.00278
0.00278
0.00278
0.00278
0.00278
0.00278
0.00278
0.00278
0.00278
0.00278
0.00278
0.00278
0.00278
0.00278
0.00278
0.00278
0.00278
0.00278
0.00278
0.00278
0.00278
0.00278
0.00278
0.00278
0.00278
0.00278
0.00278
0.00278
0.00278
0.00278
0.00278
0.00278
0.00278
0.00278
0.00278
0.00278
0.00278
0.00278
0.00278
0.00278
0.00278
0.00278
0.00278
0.00278
0.00278
0.00278
0.00278
0.00278
0.00278
0.00278
0.00278
0.00278
0.00278
0.00278
0.00278
0.00278
0.00278
0.00278
0.00278
0.00278
0.00278
0.00278
0.00278
0.00278
0.00278
0.00278
0.00278
0.00278
0.00278
0.00278
0.00278
0.00278
0.00278
0.00278
0.00278
0.00278
0.00278
0.00278
0.00278
0.00278
0.00278
0.00278
0.00278
0.00278
0.00278
0.00278
0.00278
0.00278
0.00278
0.00278
0.00278
0.00278
0.00278
0.00278
0.00278
0.00278
0.00278
0.00278
0.00278
0.00278
0.00278
0.00278
0.00278
0.00278
0.00278
0.00278
0.00278
0.00278
0.00278
0.00278
0.00278
0.00278
0.00278
0.00278
0.00278
0.00278
0.00278
0.00278
0.00278
0.00278
0.00278
0.00278
0.00278
0.00278
0.00278
0.00278
0.00278
0.00278
0.00278
0.00278
0.00278
0.00278
0.00278
0.00278
0.00278
0.00278
0.00278
0.00278
0.00278
0.00278
0.00278
)
;

boundaryField
{
    sides
    {
        type            zeroGradient;
    }
    empty
    {
        type            empty;
    }
}


// ************************************************************************* //
